
     Program PWSCF v.6.1 (svn rev. 13369) starts on 22May2017 at 17: 7: 3 

     This program is part of the open-source Quantum ESPRESSO suite
     for quantum simulation of materials; please cite
         "P. Giannozzi et al., J. Phys.:Condens. Matter 21 395502 (2009);
          URL http://www.quantum-espresso.org", 
     in publications or presentations arising from this work. More details at
     http://www.quantum-espresso.org/quote

     Parallel version (MPI), running on     1 processors
     Waiting for input...
     Reading input from standard input

     Current dimensions of program PWSCF are:
     Max number of different atomic species (ntypx) = 10
     Max number of k-points (npk) =  40000
     Max angular momentum in pseudopotentials (lmaxx) =  3

     Subspace diagonalization in iterative solution of the eigenvalue problem:
     a serial algorithm will be used


     G-vector sticks info
     --------------------
     sticks:   dense  smooth     PW     G-vecs:    dense   smooth      PW
     Sum        8121    8121   2029               552629   552629   68999



     bravais-lattice index     =            0
     lattice parameter (alat)  =      16.0000  a.u.
     unit-cell volume          =    4096.0000 (a.u.)^3
     number of atoms/cell      =            1
     number of atomic types    =            1
     number of electrons       =         4.00
     number of Kohn-Sham states=            2
     kinetic-energy cutoff     =     100.0000  Ry
     charge density cutoff     =     400.0000  Ry
     convergence threshold     =      1.0E-06
     mixing beta               =       0.5000
     number of iterations used =            8  plain     mixing
     Exchange-correlation      = PZ ( 1  1  0  0 0 0)

     celldm(1)=  16.000000  celldm(2)=   0.000000  celldm(3)=   0.000000
     celldm(4)=   0.000000  celldm(5)=   0.000000  celldm(6)=   0.000000

     crystal axes: (cart. coord. in units of alat)
               a(1) = (   1.000000   0.000000   0.000000 )  
               a(2) = (   0.000000   1.000000   0.000000 )  
               a(3) = (   0.000000   0.000000   1.000000 )  

     reciprocal axes: (cart. coord. in units 2 pi/alat)
               b(1) = (  1.000000  0.000000  0.000000 )  
               b(2) = (  0.000000  1.000000  0.000000 )  
               b(3) = (  0.000000  0.000000  1.000000 )  


     PseudoPot. # 1 for Si read from file:
     ./Si.4.LDA.gth
     MD5 check sum: 7919da37966b50cdc0690885027a95ba
     Pseudo is Norm-conserving, Zval =  4.0
     GTH norm-conserving PP, generated by Matthias Krack
     Using radial grid of 1141 points,  3 beta functions with: 
                l(1) =   0
                l(2) =   0
                l(3) =   1

     atomic species   valence    mass     pseudopotential
        Si             4.00    14.00000     Si( 1.00)

     48 Sym. Ops., with inversion, found



   Cartesian axes

     site n.     atom                  positions (alat units)
         1           Si  tau(   1) = (   0.0000000   0.0000000   0.0000000  )

     number of k points=     1
                       cart. coord. in units 2pi/alat
        k(    1) = (   0.0000000   0.0000000   0.0000000), wk =   2.0000000

     Dense  grid:   552629 G-vectors     FFT dimensions: ( 108, 108, 108)

     Estimated max dynamical RAM per process >     323.68MB

     Initial potential from superposition of free atoms
     Starting wfc are random

     total cpu time spent up to now is        2.4 secs

     per-process dynamical memory:   225.7 Mb

     Self-consistent Calculation

     iteration #  1     ecut=   100.00 Ry     beta=0.50
     Davidson diagonalization with overlap
     ethr =  1.00E-02,  avg # of iterations =  7.0

     total cpu time spent up to now is        4.7 secs

     total energy              =      -7.11225940 Ry
     Harris-Foulkes estimate   =      -8.08225528 Ry
     estimated scf accuracy    <       1.83619669 Ry

     iteration #  2     ecut=   100.00 Ry     beta=0.50
     Davidson diagonalization with overlap
     ethr =  1.00E-02,  avg # of iterations =  3.0

     total cpu time spent up to now is        6.1 secs

     total energy              =      -7.49400960 Ry
     Harris-Foulkes estimate   =      -7.51639580 Ry
     estimated scf accuracy    <       0.09630988 Ry

     iteration #  3     ecut=   100.00 Ry     beta=0.50
     Davidson diagonalization with overlap
     ethr =  2.41E-03,  avg # of iterations =  1.0

     total cpu time spent up to now is        7.3 secs

     total energy              =      -7.49425053 Ry
     Harris-Foulkes estimate   =      -7.49543578 Ry
     estimated scf accuracy    <       0.02255024 Ry

     iteration #  4     ecut=   100.00 Ry     beta=0.50
     Davidson diagonalization with overlap
     ethr =  5.64E-04,  avg # of iterations =  1.0

     negative rho (up, down):  5.419E-04 0.000E+00

     total cpu time spent up to now is        8.5 secs

     total energy              =      -7.49491642 Ry
     Harris-Foulkes estimate   =      -7.49480842 Ry
     estimated scf accuracy    <       0.00002238 Ry

     iteration #  5     ecut=   100.00 Ry     beta=0.50
     Davidson diagonalization with overlap
     ethr =  5.60E-07,  avg # of iterations =  3.0

     negative rho (up, down):  2.720E-04 0.000E+00

     total cpu time spent up to now is       10.2 secs

     total energy              =      -7.49503667 Ry
     Harris-Foulkes estimate   =      -7.49504255 Ry
     estimated scf accuracy    <       0.00001962 Ry

     iteration #  6     ecut=   100.00 Ry     beta=0.50
     Davidson diagonalization with overlap
     ethr =  4.91E-07,  avg # of iterations =  2.0

     negative rho (up, down):  3.893E-06 0.000E+00

     total cpu time spent up to now is       11.5 secs

     total energy              =      -7.49504030 Ry
     Harris-Foulkes estimate   =      -7.49503859 Ry
     estimated scf accuracy    <       0.00000216 Ry

     iteration #  7     ecut=   100.00 Ry     beta=0.50
     Davidson diagonalization with overlap
     ethr =  5.40E-08,  avg # of iterations =  1.0

     total cpu time spent up to now is       12.4 secs

     End of self-consistent calculation

          k = 0.0000 0.0000 0.0000 ( 68999 PWs)   bands (ev):

   -10.4276  -3.7109

     highest occupied level (ev):    -3.7109

!    total energy              =      -7.49504061 Ry
     Harris-Foulkes estimate   =      -7.49504041 Ry
     estimated scf accuracy    <       0.00000022 Ry

     The total energy is the sum of the following terms:

     one-electron contribution =      -5.88527270 Ry
     hartree contribution      =       3.16469388 Ry
     xc contribution           =      -1.93716431 Ry
     ewald contribution        =      -2.83729748 Ry

     convergence has been achieved in   7 iterations

     Writing output data file pwscf.save

     init_run     :      1.21s CPU      2.02s WALL (       1 calls)
     electrons    :      9.48s CPU     10.11s WALL (       1 calls)

     Called by init_run:
     wfcinit      :      0.18s CPU      0.53s WALL (       1 calls)
     potinit      :      0.37s CPU      0.49s WALL (       1 calls)

     Called by electrons:
     c_bands      :      3.90s CPU      4.13s WALL (       7 calls)
     sum_band     :      2.02s CPU      2.03s WALL (       7 calls)
     v_of_rho     :      2.02s CPU      2.06s WALL (       8 calls)
     mix_rho      :      1.41s CPU      1.63s WALL (       7 calls)

     Called by c_bands:
     init_us_2    :      0.36s CPU      0.37s WALL (      15 calls)
     cegterg      :      3.64s CPU      3.87s WALL (       7 calls)

     Called by sum_band:

     Called by *egterg:
     h_psi        :      3.52s CPU      3.73s WALL (      26 calls)
     g_psi        :      0.05s CPU      0.04s WALL (      18 calls)
     cdiaghg      :      0.00s CPU      0.34s WALL (      25 calls)

     Called by h_psi:
     h_psi:pot    :      3.50s CPU      3.69s WALL (      26 calls)
     h_psi:calbec :      0.04s CPU      0.10s WALL (      26 calls)
     vloc_psi     :      3.38s CPU      3.54s WALL (      26 calls)
     add_vuspsi   :      0.07s CPU      0.06s WALL (      26 calls)

     General routines
     calbec       :      0.04s CPU      0.10s WALL (      26 calls)
     fft          :      1.32s CPU      1.50s WALL (      31 calls)
     fftw         :      3.25s CPU      3.35s WALL (     114 calls)

     Parallel routines
     fft_scatter  :      0.78s CPU      0.79s WALL (     145 calls)

     PWSCF        :    10.91s CPU        12.86s WALL


   This run was terminated on:  17: 7:16  22May2017            

=------------------------------------------------------------------------------=
   JOB DONE.
=------------------------------------------------------------------------------=
