
     Program PWSCF v.6.1 (svn rev. 13369) starts on 22Mar2017 at 15:10:46 

     This program is part of the open-source Quantum ESPRESSO suite
     for quantum simulation of materials; please cite
         "P. Giannozzi et al., J. Phys.:Condens. Matter 21 395502 (2009);
          URL http://www.quantum-espresso.org", 
     in publications or presentations arising from this work. More details at
     http://www.quantum-espresso.org/quote

     Parallel version (MPI), running on     1 processors
     Waiting for input...
     Reading input from standard input

     Current dimensions of program PWSCF are:
     Max number of different atomic species (ntypx) = 10
     Max number of k-points (npk) =  40000
     Max angular momentum in pseudopotentials (lmaxx) =  3

     Subspace diagonalization in iterative solution of the eigenvalue problem:
     a serial algorithm will be used


     G-vector sticks info
     --------------------
     sticks:   dense  smooth     PW     G-vecs:    dense   smooth      PW
     Sum        8121    8121   2029               552629   552629   68999



     bravais-lattice index     =            0
     lattice parameter (alat)  =      16.0000  a.u.
     unit-cell volume          =    4096.0000 (a.u.)^3
     number of atoms/cell      =            1
     number of atomic types    =            1
     number of electrons       =         3.00
     number of Kohn-Sham states=            2
     kinetic-energy cutoff     =     100.0000  Ry
     charge density cutoff     =     400.0000  Ry
     convergence threshold     =      1.0E-06
     mixing beta               =       0.5000
     number of iterations used =            8  plain     mixing
     Exchange-correlation      = PZ ( 1  1  0  0 0 0)

     celldm(1)=  16.000000  celldm(2)=   0.000000  celldm(3)=   0.000000
     celldm(4)=   0.000000  celldm(5)=   0.000000  celldm(6)=   0.000000

     crystal axes: (cart. coord. in units of alat)
               a(1) = (   1.000000   0.000000   0.000000 )  
               a(2) = (   0.000000   1.000000   0.000000 )  
               a(3) = (   0.000000   0.000000   1.000000 )  

     reciprocal axes: (cart. coord. in units 2 pi/alat)
               b(1) = (  1.000000  0.000000  0.000000 )  
               b(2) = (  0.000000  1.000000  0.000000 )  
               b(3) = (  0.000000  0.000000  1.000000 )  


     PseudoPot. # 1 for Li read from file:
     ./Li.3.LDA.gth
     MD5 check sum: 89d311e85a80a94925fb2cc8ad099207
     Pseudo is Norm-conserving, Zval =  3.0
     GTH norm-conserving PP, generated by Matthias Krack
     Using radial grid of 1017 points,  1 beta functions with: 
                l(1) =   0

     atomic species   valence    mass     pseudopotential
        Li             3.00     3.00000     Li( 1.00)

     48 Sym. Ops., with inversion, found



   Cartesian axes

     site n.     atom                  positions (alat units)
         1           Li  tau(   1) = (   0.0000000   0.0000000   0.0000000  )

     number of k points=     1
                       cart. coord. in units 2pi/alat
        k(    1) = (   0.0000000   0.0000000   0.0000000), wk =   2.0000000

     Dense  grid:   552629 G-vectors     FFT dimensions: ( 108, 108, 108)

     Occupations read from input 

        2.0000   1.0000

     Estimated max dynamical RAM per process >     319.46MB

     Initial potential from superposition of free atoms

     negative rho (up, down):  1.675E-06 0.000E+00
     Starting wfc are random

     total cpu time spent up to now is        1.4 secs

     per-process dynamical memory:   219.9 Mb

     Self-consistent Calculation

     iteration #  1     ecut=   100.00 Ry     beta=0.50
     Davidson diagonalization with overlap
     ethr =  1.00E-02,  avg # of iterations =  8.0

     total cpu time spent up to now is        3.4 secs

     total energy              =     -14.48210799 Ry
     Harris-Foulkes estimate   =     -16.84269557 Ry
     estimated scf accuracy    <       3.98110001 Ry

     iteration #  2     ecut=   100.00 Ry     beta=0.50
     Davidson diagonalization with overlap
     ethr =  1.00E-02,  avg # of iterations =  3.0

     total cpu time spent up to now is        4.6 secs

     total energy              =     -14.45316436 Ry
     Harris-Foulkes estimate   =     -14.77576398 Ry
     estimated scf accuracy    <       0.42441897 Ry

     iteration #  3     ecut=   100.00 Ry     beta=0.50
     Davidson diagonalization with overlap
     ethr =  1.00E-02,  avg # of iterations =  2.0

     total cpu time spent up to now is        5.8 secs

     total energy              =     -14.52718854 Ry
     Harris-Foulkes estimate   =     -14.52411654 Ry
     estimated scf accuracy    <       0.01697417 Ry

     iteration #  4     ecut=   100.00 Ry     beta=0.50
     Davidson diagonalization with overlap
     ethr =  5.66E-04,  avg # of iterations =  1.0

     total cpu time spent up to now is        6.9 secs

     total energy              =     -14.52960403 Ry
     Harris-Foulkes estimate   =     -14.52749320 Ry
     estimated scf accuracy    <       0.00903623 Ry

     iteration #  5     ecut=   100.00 Ry     beta=0.50
     Davidson diagonalization with overlap
     ethr =  3.01E-04,  avg # of iterations =  1.0

     total cpu time spent up to now is        8.0 secs

     total energy              =     -14.52991621 Ry
     Harris-Foulkes estimate   =     -14.52991641 Ry
     estimated scf accuracy    <       0.00000545 Ry

     iteration #  6     ecut=   100.00 Ry     beta=0.50
     Davidson diagonalization with overlap
     ethr =  1.82E-07,  avg # of iterations =  5.0

     total cpu time spent up to now is        9.6 secs

     total energy              =     -14.53009539 Ry
     Harris-Foulkes estimate   =     -14.53009788 Ry
     estimated scf accuracy    <       0.00005677 Ry

     iteration #  7     ecut=   100.00 Ry     beta=0.50
     Davidson diagonalization with overlap
     ethr =  1.82E-07,  avg # of iterations =  1.0

     total cpu time spent up to now is       10.8 secs

     total energy              =     -14.53009610 Ry
     Harris-Foulkes estimate   =     -14.53009559 Ry
     estimated scf accuracy    <       0.00003424 Ry

     iteration #  8     ecut=   100.00 Ry     beta=0.50
     Davidson diagonalization with overlap
     ethr =  1.82E-07,  avg # of iterations =  2.0

     total cpu time spent up to now is       11.8 secs

     End of self-consistent calculation

          k = 0.0000 0.0000 0.0000 ( 68999 PWs)   bands (ev):

   -51.0646  -2.8492

     highest occupied level (ev):    -2.8492

!    total energy              =     -14.53009716 Ry
     Harris-Foulkes estimate   =     -14.53009719 Ry
     estimated scf accuracy    <       0.00000021 Ry

     The total energy is the sum of the following terms:

     one-electron contribution =     -15.95051097 Ry
     hartree contribution      =       6.22481307 Ry
     xc contribution           =      -3.20841943 Ry
     ewald contribution        =      -1.59597983 Ry

     convergence has been achieved in   8 iterations

     Writing output data file pwscf.save

     init_run     :      1.17s CPU      1.32s WALL (       1 calls)
     electrons    :     10.19s CPU     10.47s WALL (       1 calls)

     Called by init_run:
     wfcinit      :      0.16s CPU      0.16s WALL (       1 calls)
     potinit      :      0.42s CPU      0.46s WALL (       1 calls)

     Called by electrons:
     c_bands      :      4.09s CPU      4.12s WALL (       8 calls)
     sum_band     :      2.04s CPU      2.05s WALL (       8 calls)
     v_of_rho     :      2.23s CPU      2.27s WALL (       9 calls)
     mix_rho      :      1.76s CPU      1.96s WALL (       8 calls)

     Called by c_bands:
     init_us_2    :      0.06s CPU      0.06s WALL (      17 calls)
     cegterg      :      4.06s CPU      4.08s WALL (       8 calls)

     Called by sum_band:

     Called by *egterg:
     h_psi        :      3.89s CPU      3.91s WALL (      32 calls)
     g_psi        :      0.05s CPU      0.05s WALL (      23 calls)
     cdiaghg      :      0.00s CPU      0.00s WALL (      31 calls)

     Called by h_psi:
     h_psi:pot    :      3.86s CPU      3.87s WALL (      32 calls)
     h_psi:calbec :      0.02s CPU      0.02s WALL (      32 calls)
     vloc_psi     :      3.82s CPU      3.84s WALL (      32 calls)
     add_vuspsi   :      0.02s CPU      0.02s WALL (      32 calls)

     General routines
     calbec       :      0.02s CPU      0.02s WALL (      32 calls)
     fft          :      1.32s CPU      1.38s WALL (      35 calls)
     fftw         :      3.58s CPU      3.62s WALL (     132 calls)

     Parallel routines
     fft_scatter  :      0.87s CPU      0.86s WALL (     167 calls)

     PWSCF        :    11.57s CPU        12.04s WALL


   This run was terminated on:  15:10:58  22Mar2017            

=------------------------------------------------------------------------------=
   JOB DONE.
=------------------------------------------------------------------------------=
