
     Program PWSCF v.6.1 (svn rev. 13369) starts on 22Mar2017 at 15: 5:47 

     This program is part of the open-source Quantum ESPRESSO suite
     for quantum simulation of materials; please cite
         "P. Giannozzi et al., J. Phys.:Condens. Matter 21 395502 (2009);
          URL http://www.quantum-espresso.org", 
     in publications or presentations arising from this work. More details at
     http://www.quantum-espresso.org/quote

     Parallel version (MPI), running on     1 processors
     Waiting for input...
     Reading input from standard input

     Current dimensions of program PWSCF are:
     Max number of different atomic species (ntypx) = 10
     Max number of k-points (npk) =  40000
     Max angular momentum in pseudopotentials (lmaxx) =  3

     Subspace diagonalization in iterative solution of the eigenvalue problem:
     a serial algorithm will be used


     G-vector sticks info
     --------------------
     sticks:   dense  smooth     PW     G-vecs:    dense   smooth      PW
     Sum        4053    4053   1009               195269   195269   24405



     bravais-lattice index     =            0
     lattice parameter (alat)  =      16.0000  a.u.
     unit-cell volume          =    4096.0000 (a.u.)^3
     number of atoms/cell      =            1
     number of atomic types    =            1
     number of electrons       =         3.00
     number of Kohn-Sham states=            2
     kinetic-energy cutoff     =      50.0000  Ry
     charge density cutoff     =     200.0000  Ry
     convergence threshold     =      1.0E-06
     mixing beta               =       0.5000
     number of iterations used =            8  plain     mixing
     Exchange-correlation      = PZ ( 1  1  0  0 0 0)

     celldm(1)=  16.000000  celldm(2)=   0.000000  celldm(3)=   0.000000
     celldm(4)=   0.000000  celldm(5)=   0.000000  celldm(6)=   0.000000

     crystal axes: (cart. coord. in units of alat)
               a(1) = (   1.000000   0.000000   0.000000 )  
               a(2) = (   0.000000   1.000000   0.000000 )  
               a(3) = (   0.000000   0.000000   1.000000 )  

     reciprocal axes: (cart. coord. in units 2 pi/alat)
               b(1) = (  1.000000  0.000000  0.000000 )  
               b(2) = (  0.000000  1.000000  0.000000 )  
               b(3) = (  0.000000  0.000000  1.000000 )  


     PseudoPot. # 1 for Li read from file:
     ./Li.3.LDA.gth
     MD5 check sum: 89d311e85a80a94925fb2cc8ad099207
     Pseudo is Norm-conserving, Zval =  3.0
     GTH norm-conserving PP, generated by Matthias Krack
     Using radial grid of 1017 points,  1 beta functions with: 
                l(1) =   0

     atomic species   valence    mass     pseudopotential
        Li             3.00     3.00000     Li( 1.00)

     48 Sym. Ops., with inversion, found



   Cartesian axes

     site n.     atom                  positions (alat units)
         1           Li  tau(   1) = (   0.0000000   0.0000000   0.0000000  )

     number of k points=     1
                       cart. coord. in units 2pi/alat
        k(    1) = (   0.0000000   0.0000000   0.0000000), wk =   2.0000000

     Dense  grid:   195269 G-vectors     FFT dimensions: (  75,  75,  75)

     Occupations read from input 

        2.0000   1.0000

     Estimated max dynamical RAM per process >     111.29MB

     Initial potential from superposition of free atoms
     Check: negative starting charge=   -0.010313

     negative rho (up, down):  1.031E-02 0.000E+00
     Starting wfc are random

     total cpu time spent up to now is        0.5 secs

     per-process dynamical memory:    80.3 Mb

     Self-consistent Calculation

     iteration #  1     ecut=    50.00 Ry     beta=0.50
     Davidson diagonalization with overlap
     ethr =  1.00E-02,  avg # of iterations =  7.0

     total cpu time spent up to now is        1.1 secs

     total energy              =     -13.78351814 Ry
     Harris-Foulkes estimate   =     -16.57609163 Ry
     estimated scf accuracy    <       4.60740261 Ry

     iteration #  2     ecut=    50.00 Ry     beta=0.50
     Davidson diagonalization with overlap
     ethr =  1.00E-02,  avg # of iterations =  2.0

     total cpu time spent up to now is        1.5 secs

     total energy              =     -13.82904055 Ry
     Harris-Foulkes estimate   =     -14.16730686 Ry
     estimated scf accuracy    <       0.44474602 Ry

     iteration #  3     ecut=    50.00 Ry     beta=0.50
     Davidson diagonalization with overlap
     ethr =  1.00E-02,  avg # of iterations =  3.0

     total cpu time spent up to now is        1.9 secs

     total energy              =     -13.90141173 Ry
     Harris-Foulkes estimate   =     -13.90007245 Ry
     estimated scf accuracy    <       0.01552112 Ry

     iteration #  4     ecut=    50.00 Ry     beta=0.50
     Davidson diagonalization with overlap
     ethr =  5.17E-04,  avg # of iterations =  1.0

     total cpu time spent up to now is        2.2 secs

     total energy              =     -13.90413803 Ry
     Harris-Foulkes estimate   =     -13.90152773 Ry
     estimated scf accuracy    <       0.01138523 Ry

     iteration #  5     ecut=    50.00 Ry     beta=0.50
     Davidson diagonalization with overlap
     ethr =  3.80E-04,  avg # of iterations =  1.0

     total cpu time spent up to now is        2.6 secs

     total energy              =     -13.90455126 Ry
     Harris-Foulkes estimate   =     -13.90454583 Ry
     estimated scf accuracy    <       0.00000651 Ry

     iteration #  6     ecut=    50.00 Ry     beta=0.50
     Davidson diagonalization with overlap
     ethr =  2.17E-07,  avg # of iterations =  5.0

     total cpu time spent up to now is        3.1 secs

     total energy              =     -13.90467675 Ry
     Harris-Foulkes estimate   =     -13.90468320 Ry
     estimated scf accuracy    <       0.00002187 Ry

     iteration #  7     ecut=    50.00 Ry     beta=0.50
     Davidson diagonalization with overlap
     ethr =  2.17E-07,  avg # of iterations =  1.0

     total cpu time spent up to now is        3.5 secs

     total energy              =     -13.90467825 Ry
     Harris-Foulkes estimate   =     -13.90467726 Ry
     estimated scf accuracy    <       0.00000802 Ry

     iteration #  8     ecut=    50.00 Ry     beta=0.50
     Davidson diagonalization with overlap
     ethr =  2.17E-07,  avg # of iterations =  2.0

     total cpu time spent up to now is        4.0 secs

     total energy              =     -13.90467932 Ry
     Harris-Foulkes estimate   =     -13.90467909 Ry
     estimated scf accuracy    <       0.00000150 Ry

     iteration #  9     ecut=    50.00 Ry     beta=0.50
     Davidson diagonalization with overlap
     ethr =  5.02E-08,  avg # of iterations =  2.0

     total cpu time spent up to now is        4.3 secs

     End of self-consistent calculation

          k = 0.0000 0.0000 0.0000 ( 24405 PWs)   bands (ev):

   -48.9711  -2.8178

     highest occupied level (ev):    -2.8178

!    total energy              =     -13.90467947 Ry
     Harris-Foulkes estimate   =     -13.90467942 Ry
     estimated scf accuracy    <       0.00000001 Ry

     The total energy is the sum of the following terms:

     one-electron contribution =     -15.11461578 Ry
     hartree contribution      =       5.85742557 Ry
     xc contribution           =      -3.05150940 Ry
     ewald contribution        =      -1.59597987 Ry

     convergence has been achieved in   9 iterations

     Writing output data file pwscf.save

     init_run     :      0.38s CPU      0.44s WALL (       1 calls)
     electrons    :      3.79s CPU      3.85s WALL (       1 calls)

     Called by init_run:
     wfcinit      :      0.04s CPU      0.05s WALL (       1 calls)
     potinit      :      0.15s CPU      0.17s WALL (       1 calls)

     Called by electrons:
     c_bands      :      1.40s CPU      1.41s WALL (       9 calls)
     sum_band     :      0.77s CPU      0.78s WALL (       9 calls)
     v_of_rho     :      0.84s CPU      0.84s WALL (      10 calls)
     mix_rho      :      0.76s CPU      0.79s WALL (       9 calls)

     Called by c_bands:
     init_us_2    :      0.03s CPU      0.02s WALL (      19 calls)
     cegterg      :      1.38s CPU      1.40s WALL (       9 calls)

     Called by sum_band:

     Called by *egterg:
     h_psi        :      1.33s CPU      1.34s WALL (      34 calls)
     g_psi        :      0.01s CPU      0.02s WALL (      24 calls)
     cdiaghg      :      0.00s CPU      0.00s WALL (      33 calls)

     Called by h_psi:
     h_psi:pot    :      1.32s CPU      1.33s WALL (      34 calls)
     h_psi:calbec :      0.01s CPU      0.01s WALL (      34 calls)
     vloc_psi     :      1.31s CPU      1.32s WALL (      34 calls)
     add_vuspsi   :      0.00s CPU      0.00s WALL (      34 calls)

     General routines
     calbec       :      0.01s CPU      0.01s WALL (      34 calls)
     fft          :      0.49s CPU      0.50s WALL (      39 calls)
     fftw         :      1.24s CPU      1.24s WALL (     142 calls)

     Parallel routines
     fft_scatter  :      0.31s CPU      0.33s WALL (     181 calls)

     PWSCF        :     4.31s CPU         4.44s WALL


   This run was terminated on:  15: 5:52  22Mar2017            

=------------------------------------------------------------------------------=
   JOB DONE.
=------------------------------------------------------------------------------=
