
     Program PWSCF v.6.1 (svn rev. 13369) starts on 22Mar2017 at 15: 7:39 

     This program is part of the open-source Quantum ESPRESSO suite
     for quantum simulation of materials; please cite
         "P. Giannozzi et al., J. Phys.:Condens. Matter 21 395502 (2009);
          URL http://www.quantum-espresso.org", 
     in publications or presentations arising from this work. More details at
     http://www.quantum-espresso.org/quote

     Parallel version (MPI), running on     1 processors
     Waiting for input...
     Reading input from standard input

     Current dimensions of program PWSCF are:
     Max number of different atomic species (ntypx) = 10
     Max number of k-points (npk) =  40000
     Max angular momentum in pseudopotentials (lmaxx) =  3

     Subspace diagonalization in iterative solution of the eigenvalue problem:
     a serial algorithm will be used


     G-vector sticks info
     --------------------
     sticks:   dense  smooth     PW     G-vecs:    dense   smooth      PW
     Sum        6525    6525   1617               396407   396407   49509



     bravais-lattice index     =            0
     lattice parameter (alat)  =      16.0000  a.u.
     unit-cell volume          =    4096.0000 (a.u.)^3
     number of atoms/cell      =            1
     number of atomic types    =            1
     number of electrons       =         3.00
     number of Kohn-Sham states=            2
     kinetic-energy cutoff     =      80.0000  Ry
     charge density cutoff     =     320.0000  Ry
     convergence threshold     =      1.0E-06
     mixing beta               =       0.5000
     number of iterations used =            8  plain     mixing
     Exchange-correlation      = PZ ( 1  1  0  0 0 0)

     celldm(1)=  16.000000  celldm(2)=   0.000000  celldm(3)=   0.000000
     celldm(4)=   0.000000  celldm(5)=   0.000000  celldm(6)=   0.000000

     crystal axes: (cart. coord. in units of alat)
               a(1) = (   1.000000   0.000000   0.000000 )  
               a(2) = (   0.000000   1.000000   0.000000 )  
               a(3) = (   0.000000   0.000000   1.000000 )  

     reciprocal axes: (cart. coord. in units 2 pi/alat)
               b(1) = (  1.000000  0.000000  0.000000 )  
               b(2) = (  0.000000  1.000000  0.000000 )  
               b(3) = (  0.000000  0.000000  1.000000 )  


     PseudoPot. # 1 for Li read from file:
     ./Li.3.LDA.gth
     MD5 check sum: 89d311e85a80a94925fb2cc8ad099207
     Pseudo is Norm-conserving, Zval =  3.0
     GTH norm-conserving PP, generated by Matthias Krack
     Using radial grid of 1017 points,  1 beta functions with: 
                l(1) =   0

     atomic species   valence    mass     pseudopotential
        Li             3.00     3.00000     Li( 1.00)

     48 Sym. Ops., with inversion, found



   Cartesian axes

     site n.     atom                  positions (alat units)
         1           Li  tau(   1) = (   0.0000000   0.0000000   0.0000000  )

     number of k points=     1
                       cart. coord. in units 2pi/alat
        k(    1) = (   0.0000000   0.0000000   0.0000000), wk =   2.0000000

     Dense  grid:   396407 G-vectors     FFT dimensions: (  96,  96,  96)

     Occupations read from input 

        2.0000   1.0000

     Estimated max dynamical RAM per process >     227.84MB

     Initial potential from superposition of free atoms

     negative rho (up, down):  5.612E-05 0.000E+00
     Starting wfc are random

     total cpu time spent up to now is        0.9 secs

     per-process dynamical memory:   157.4 Mb

     Self-consistent Calculation

     iteration #  1     ecut=    80.00 Ry     beta=0.50
     Davidson diagonalization with overlap
     ethr =  1.00E-02,  avg # of iterations =  7.0

     total cpu time spent up to now is        2.3 secs

     total energy              =     -14.35038969 Ry
     Harris-Foulkes estimate   =     -16.79868525 Ry
     estimated scf accuracy    <       4.11583456 Ry

     iteration #  2     ecut=    80.00 Ry     beta=0.50
     Davidson diagonalization with overlap
     ethr =  1.00E-02,  avg # of iterations =  3.0

     total cpu time spent up to now is        3.1 secs

     total energy              =     -14.35654274 Ry
     Harris-Foulkes estimate   =     -14.67488496 Ry
     estimated scf accuracy    <       0.41955818 Ry

     iteration #  3     ecut=    80.00 Ry     beta=0.50
     Davidson diagonalization with overlap
     ethr =  1.00E-02,  avg # of iterations =  2.0

     total cpu time spent up to now is        3.9 secs

     total energy              =     -14.42813080 Ry
     Harris-Foulkes estimate   =     -14.42534817 Ry
     estimated scf accuracy    <       0.01627558 Ry

     iteration #  4     ecut=    80.00 Ry     beta=0.50
     Davidson diagonalization with overlap
     ethr =  5.43E-04,  avg # of iterations =  1.0

     total cpu time spent up to now is        4.6 secs

     total energy              =     -14.43062073 Ry
     Harris-Foulkes estimate   =     -14.42847161 Ry
     estimated scf accuracy    <       0.00900359 Ry

     iteration #  5     ecut=    80.00 Ry     beta=0.50
     Davidson diagonalization with overlap
     ethr =  3.00E-04,  avg # of iterations =  2.0

     total cpu time spent up to now is        5.4 secs

     total energy              =     -14.43119156 Ry
     Harris-Foulkes estimate   =     -14.43120491 Ry
     estimated scf accuracy    <       0.00005350 Ry

     iteration #  6     ecut=    80.00 Ry     beta=0.50
     Davidson diagonalization with overlap
     ethr =  1.78E-06,  avg # of iterations =  3.0

     total cpu time spent up to now is        6.3 secs

     total energy              =     -14.43121408 Ry
     Harris-Foulkes estimate   =     -14.43121396 Ry
     estimated scf accuracy    <       0.00001693 Ry

     iteration #  7     ecut=    80.00 Ry     beta=0.50
     Davidson diagonalization with overlap
     ethr =  5.64E-07,  avg # of iterations =  1.0

     total cpu time spent up to now is        7.2 secs

     total energy              =     -14.43121486 Ry
     Harris-Foulkes estimate   =     -14.43121456 Ry
     estimated scf accuracy    <       0.00000206 Ry

     iteration #  8     ecut=    80.00 Ry     beta=0.50
     Davidson diagonalization with overlap
     ethr =  6.87E-08,  avg # of iterations =  3.0

     total cpu time spent up to now is        7.8 secs

     End of self-consistent calculation

          k = 0.0000 0.0000 0.0000 ( 49509 PWs)   bands (ev):

   -50.7540  -2.8414

     highest occupied level (ev):    -2.8414

!    total energy              =     -14.43121517 Ry
     Harris-Foulkes estimate   =     -14.43121518 Ry
     estimated scf accuracy    <       0.00000053 Ry

     The total energy is the sum of the following terms:

     one-electron contribution =     -15.81490831 Ry
     hartree contribution      =       6.16052019 Ry
     xc contribution           =      -3.18084721 Ry
     ewald contribution        =      -1.59597983 Ry

     convergence has been achieved in   8 iterations

     Writing output data file pwscf.save

     init_run     :      0.80s CPU      0.91s WALL (       1 calls)
     electrons    :      6.76s CPU      6.95s WALL (       1 calls)

     Called by init_run:
     wfcinit      :      0.10s CPU      0.11s WALL (       1 calls)
     potinit      :      0.29s CPU      0.34s WALL (       1 calls)

     Called by electrons:
     c_bands      :      2.52s CPU      2.55s WALL (       8 calls)
     sum_band     :      1.39s CPU      1.40s WALL (       8 calls)
     v_of_rho     :      1.58s CPU      1.61s WALL (       9 calls)
     mix_rho      :      1.24s CPU      1.36s WALL (       8 calls)

     Called by c_bands:
     init_us_2    :      0.04s CPU      0.04s WALL (      17 calls)
     cegterg      :      2.49s CPU      2.52s WALL (       8 calls)

     Called by sum_band:

     Called by *egterg:
     h_psi        :      2.36s CPU      2.40s WALL (      31 calls)
     g_psi        :      0.04s CPU      0.03s WALL (      22 calls)
     cdiaghg      :      0.00s CPU      0.00s WALL (      30 calls)

     Called by h_psi:
     h_psi:pot    :      2.34s CPU      2.38s WALL (      31 calls)
     h_psi:calbec :      0.01s CPU      0.01s WALL (      31 calls)
     vloc_psi     :      2.32s CPU      2.36s WALL (      31 calls)
     add_vuspsi   :      0.01s CPU      0.01s WALL (      31 calls)

     General routines
     calbec       :      0.01s CPU      0.01s WALL (      31 calls)
     fft          :      0.89s CPU      0.92s WALL (      35 calls)
     fftw         :      2.16s CPU      2.21s WALL (     128 calls)

     Parallel routines
     fft_scatter  :      0.67s CPU      0.67s WALL (     163 calls)

     PWSCF        :     7.73s CPU         8.06s WALL


   This run was terminated on:  15: 7:47  22Mar2017            

=------------------------------------------------------------------------------=
   JOB DONE.
=------------------------------------------------------------------------------=
