
     Program PWSCF v.6.1 (svn rev. 13369) starts on  2May2017 at  4:35:28 

     This program is part of the open-source Quantum ESPRESSO suite
     for quantum simulation of materials; please cite
         "P. Giannozzi et al., J. Phys.:Condens. Matter 21 395502 (2009);
          URL http://www.quantum-espresso.org", 
     in publications or presentations arising from this work. More details at
     http://www.quantum-espresso.org/quote

     Parallel version (MPI), running on     1 processors
     Waiting for input...
     Reading input from standard input

     Current dimensions of program PWSCF are:
     Max number of different atomic species (ntypx) = 10
     Max number of k-points (npk) =  40000
     Max angular momentum in pseudopotentials (lmaxx) =  3
 rloc=   0.3250000
 cc(1:4)= -24.0150410  17.2040140  -3.3263900   0.1654190

     Subspace diagonalization in iterative solution of the eigenvalue problem:
     a serial algorithm will be used


     G-vector sticks info
     --------------------
     sticks:   dense  smooth     PW     G-vecs:    dense   smooth      PW
     Sum       16281   16281   4053              1564577  1564577  195269



     bravais-lattice index     =            0
     lattice parameter (alat)  =      16.0000  a.u.
     unit-cell volume          =    4096.0000 (a.u.)^3
     number of atoms/cell      =            1
     number of atomic types    =            1
     number of electrons       =         4.00
     number of Kohn-Sham states=            2
     kinetic-energy cutoff     =     200.0000  Ry
     charge density cutoff     =     800.0000  Ry
     convergence threshold     =      1.0E-06
     mixing beta               =       0.5000
     number of iterations used =            8  plain     mixing
     Exchange-correlation      = PZ ( 1  1  0  0 0 0)

     celldm(1)=  16.000000  celldm(2)=   0.000000  celldm(3)=   0.000000
     celldm(4)=   0.000000  celldm(5)=   0.000000  celldm(6)=   0.000000

     crystal axes: (cart. coord. in units of alat)
               a(1) = (   1.000000   0.000000   0.000000 )  
               a(2) = (   0.000000   1.000000   0.000000 )  
               a(3) = (   0.000000   0.000000   1.000000 )  

     reciprocal axes: (cart. coord. in units 2 pi/alat)
               b(1) = (  1.000000  0.000000  0.000000 )  
               b(2) = (  0.000000  1.000000  0.000000 )  
               b(3) = (  0.000000  0.000000  1.000000 )  


     PseudoPot. # 1 for Be read from file:
     ./Be.4.LDA.gth
     MD5 check sum: 92ac962abc6e120a4e29ce7af7f4b291
     Pseudo is Norm-conserving, Zval =  4.0
     GTH norm-conserving PP, generated by Matthias Krack
     Using radial grid of 1041 points,  1 beta functions with: 
                l(1) =   0

     atomic species   valence    mass     pseudopotential
        Be             4.00     1.00000     Be( 1.00)

      8 Sym. Ops. (no inversion) found



   Cartesian axes

     site n.     atom                  positions (alat units)
         1           Be  tau(   1) = (   0.0118108   0.0000000   0.0000000  )

     number of k points=     1
                       cart. coord. in units 2pi/alat
        k(    1) = (   0.0000000   0.0000000   0.0000000), wk =   2.0000000

     Dense  grid:  1564577 G-vectors     FFT dimensions: ( 150, 150, 150)

     Estimated max dynamical RAM per process >     891.26MB

     Initial potential from superposition of free atoms

     negative rho (up, down):  4.239E-08 0.000E+00
     Starting wfc are random

 nt, nb, sum(vq) =     1    1      0.0000000000

     total cpu time spent up to now is        5.5 secs

     per-process dynamical memory:   561.1 Mb

     Self-consistent Calculation

     iteration #  1     ecut=   200.00 Ry     beta=0.50
     Davidson diagonalization with overlap

 nt, nb, sum(vq) =     1    1      0.0000000000
     ethr =  1.00E-02,  avg # of iterations =  8.0

 nt, nb, sum(vq) =     1    1      0.0000000000

     total cpu time spent up to now is       11.1 secs

     total energy              =     -28.56219675 Ry
     Harris-Foulkes estimate   =     -36.19694366 Ry
     estimated scf accuracy    <      11.73898451 Ry

     iteration #  2     ecut=   200.00 Ry     beta=0.50
     Davidson diagonalization with overlap

 nt, nb, sum(vq) =     1    1      0.0000000000
     ethr =  1.00E-02,  avg # of iterations =  3.0

 nt, nb, sum(vq) =     1    1      0.0000000000

     total cpu time spent up to now is       15.1 secs

     total energy              =     -28.55612716 Ry
     Harris-Foulkes estimate   =     -29.46805410 Ry
     estimated scf accuracy    <       1.43482425 Ry

     iteration #  3     ecut=   200.00 Ry     beta=0.50
     Davidson diagonalization with overlap

 nt, nb, sum(vq) =     1    1      0.0000000000
     ethr =  1.00E-02,  avg # of iterations =  2.0

 nt, nb, sum(vq) =     1    1      0.0000000000

     total cpu time spent up to now is       18.5 secs

     total energy              =     -28.67913599 Ry
     Harris-Foulkes estimate   =     -28.71431500 Ry
     estimated scf accuracy    <       0.10115567 Ry

     iteration #  4     ecut=   200.00 Ry     beta=0.50
     Davidson diagonalization with overlap

 nt, nb, sum(vq) =     1    1      0.0000000000
     ethr =  2.53E-03,  avg # of iterations =  1.0

 nt, nb, sum(vq) =     1    1      0.0000000000

     total cpu time spent up to now is       21.4 secs

     total energy              =     -28.68048483 Ry
     Harris-Foulkes estimate   =     -28.68132710 Ry
     estimated scf accuracy    <       0.00460918 Ry

     iteration #  5     ecut=   200.00 Ry     beta=0.50
     Davidson diagonalization with overlap

 nt, nb, sum(vq) =     1    1      0.0000000000
     ethr =  1.15E-04,  avg # of iterations =  1.0

 nt, nb, sum(vq) =     1    1      0.0000000000

     negative rho (up, down):  1.251E-06 0.000E+00

     total cpu time spent up to now is       24.4 secs

     total energy              =     -28.68068350 Ry
     Harris-Foulkes estimate   =     -28.68065874 Ry
     estimated scf accuracy    <       0.00006921 Ry

     iteration #  6     ecut=   200.00 Ry     beta=0.50
     Davidson diagonalization with overlap

 nt, nb, sum(vq) =     1    1      0.0000000000
     ethr =  1.73E-06,  avg # of iterations =  3.0

 nt, nb, sum(vq) =     1    1      0.0000000000

     total cpu time spent up to now is       27.8 secs

     total energy              =     -28.68071083 Ry
     Harris-Foulkes estimate   =     -28.68071873 Ry
     estimated scf accuracy    <       0.00001876 Ry

     iteration #  7     ecut=   200.00 Ry     beta=0.50
     Davidson diagonalization with overlap

 nt, nb, sum(vq) =     1    1      0.0000000000
     ethr =  4.69E-07,  avg # of iterations =  2.0

 nt, nb, sum(vq) =     1    1      0.0000000000

     total cpu time spent up to now is       30.3 secs

     End of self-consistent calculation

          k = 0.0000 0.0000 0.0000 (195269 PWs)   bands (ev):

  -104.6395  -5.4069

     highest occupied level (ev):    -5.4069

!    total energy              =     -28.68071276 Ry
     Harris-Foulkes estimate   =     -28.68071277 Ry
     estimated scf accuracy    <       0.00000015 Ry

     The total energy is the sum of the following terms:

     one-electron contribution =     -32.15213974 Ry
     hartree contribution      =      11.21276820 Ry
     xc contribution           =      -4.90404373 Ry
     ewald contribution        =      -2.83729748 Ry

     convergence has been achieved in   7 iterations

     Writing output data file pwscf.save

     init_run     :      2.61s CPU      4.88s WALL (       1 calls)
     electrons    :     23.08s CPU     25.37s WALL (       1 calls)

     Called by init_run:
     wfcinit      :      0.49s CPU      1.02s WALL (       1 calls)
     potinit      :      0.66s CPU      1.81s WALL (       1 calls)

     Called by electrons:
     c_bands      :      9.29s CPU      9.57s WALL (       7 calls)
     sum_band     :      4.49s CPU      4.59s WALL (       7 calls)
     v_of_rho     :      4.93s CPU      5.30s WALL (       8 calls)
     mix_rho      :      3.74s CPU      5.14s WALL (       7 calls)

     Called by c_bands:
     init_us_2    :      0.15s CPU      0.16s WALL (      15 calls)
     cegterg      :      9.22s CPU      9.48s WALL (       7 calls)

     Called by sum_band:

     Called by *egterg:
     h_psi        :      8.90s CPU      9.26s WALL (      28 calls)
     g_psi        :      0.10s CPU      0.12s WALL (      20 calls)
     cdiaghg      :      0.00s CPU      0.34s WALL (      27 calls)

     Called by h_psi:
     h_psi:pot    :      8.80s CPU      9.16s WALL (      28 calls)
     h_psi:calbec :      0.02s CPU      0.10s WALL (      28 calls)
     vloc_psi     :      8.72s CPU      8.98s WALL (      28 calls)
     add_vuspsi   :      0.06s CPU      0.08s WALL (      28 calls)

     General routines
     calbec       :      0.02s CPU      0.08s WALL (      28 calls)
     fft          :      3.25s CPU      4.05s WALL (      31 calls)
     fftw         :      8.23s CPU      8.53s WALL (     114 calls)

     Parallel routines
     fft_scatter  :      1.88s CPU      2.20s WALL (     145 calls)

     PWSCF        :    26.16s CPU        31.45s WALL


   This run was terminated on:   4:36: 0   2May2017            

=------------------------------------------------------------------------------=
   JOB DONE.
=------------------------------------------------------------------------------=
