
     Program PWSCF v.6.1 (svn rev. 13369) starts on  2May2017 at  4:36:37 

     This program is part of the open-source Quantum ESPRESSO suite
     for quantum simulation of materials; please cite
         "P. Giannozzi et al., J. Phys.:Condens. Matter 21 395502 (2009);
          URL http://www.quantum-espresso.org", 
     in publications or presentations arising from this work. More details at
     http://www.quantum-espresso.org/quote

     Parallel version (MPI), running on     1 processors
     Waiting for input...
     Reading input from standard input

     Current dimensions of program PWSCF are:
     Max number of different atomic species (ntypx) = 10
     Max number of k-points (npk) =  40000
     Max angular momentum in pseudopotentials (lmaxx) =  3
 rloc=   0.3250000
 cc(1:4)= -24.0150410  17.2040140  -3.3263900   0.1654190

     Subspace diagonalization in iterative solution of the eigenvalue problem:
     a serial algorithm will be used


     G-vector sticks info
     --------------------
     sticks:   dense  smooth     PW     G-vecs:    dense   smooth      PW
     Sum       16281   16281   4053              1564577  1564577  195269



     bravais-lattice index     =            0
     lattice parameter (alat)  =      16.0000  a.u.
     unit-cell volume          =    4096.0000 (a.u.)^3
     number of atoms/cell      =            1
     number of atomic types    =            1
     number of electrons       =         4.00
     number of Kohn-Sham states=            2
     kinetic-energy cutoff     =     200.0000  Ry
     charge density cutoff     =     800.0000  Ry
     convergence threshold     =      1.0E-06
     mixing beta               =       0.5000
     number of iterations used =            8  plain     mixing
     Exchange-correlation      = PZ ( 1  1  0  0 0 0)

     celldm(1)=  16.000000  celldm(2)=   0.000000  celldm(3)=   0.000000
     celldm(4)=   0.000000  celldm(5)=   0.000000  celldm(6)=   0.000000

     crystal axes: (cart. coord. in units of alat)
               a(1) = (   1.000000   0.000000   0.000000 )  
               a(2) = (   0.000000   1.000000   0.000000 )  
               a(3) = (   0.000000   0.000000   1.000000 )  

     reciprocal axes: (cart. coord. in units 2 pi/alat)
               b(1) = (  1.000000  0.000000  0.000000 )  
               b(2) = (  0.000000  1.000000  0.000000 )  
               b(3) = (  0.000000  0.000000  1.000000 )  


     PseudoPot. # 1 for Be read from file:
     ./Be.4.LDA.gth
     MD5 check sum: 92ac962abc6e120a4e29ce7af7f4b291
     Pseudo is Norm-conserving, Zval =  4.0
     GTH norm-conserving PP, generated by Matthias Krack
     Using radial grid of 1041 points,  1 beta functions with: 
                l(1) =   0

     atomic species   valence    mass     pseudopotential
        Be             4.00     1.00000     Be( 1.00)

      8 Sym. Ops. (no inversion) found



   Cartesian axes

     site n.     atom                  positions (alat units)
         1           Be  tau(   1) = (   0.0236216   0.0000000   0.0000000  )

     number of k points=     1
                       cart. coord. in units 2pi/alat
        k(    1) = (   0.0000000   0.0000000   0.0000000), wk =   2.0000000

     Dense  grid:  1564577 G-vectors     FFT dimensions: ( 150, 150, 150)

     Estimated max dynamical RAM per process >     891.26MB

     Initial potential from superposition of free atoms

     negative rho (up, down):  4.241E-08 0.000E+00
     Starting wfc are random

 nt, nb, sum(vq) =     1    1      0.0000000000

     total cpu time spent up to now is        2.7 secs

     per-process dynamical memory:   561.1 Mb

     Self-consistent Calculation

     iteration #  1     ecut=   200.00 Ry     beta=0.50
     Davidson diagonalization with overlap

 nt, nb, sum(vq) =     1    1      0.0000000000
     ethr =  1.00E-02,  avg # of iterations =  8.0

 nt, nb, sum(vq) =     1    1      0.0000000000

     total cpu time spent up to now is        8.0 secs

     total energy              =     -28.55739760 Ry
     Harris-Foulkes estimate   =     -36.19657131 Ry
     estimated scf accuracy    <      11.74544938 Ry

     iteration #  2     ecut=   200.00 Ry     beta=0.50
     Davidson diagonalization with overlap

 nt, nb, sum(vq) =     1    1      0.0000000000
     ethr =  1.00E-02,  avg # of iterations =  3.0

 nt, nb, sum(vq) =     1    1      0.0000000000

     total cpu time spent up to now is       11.2 secs

     total energy              =     -28.55663441 Ry
     Harris-Foulkes estimate   =     -29.46635050 Ry
     estimated scf accuracy    <       1.43471567 Ry

     iteration #  3     ecut=   200.00 Ry     beta=0.50
     Davidson diagonalization with overlap

 nt, nb, sum(vq) =     1    1      0.0000000000
     ethr =  1.00E-02,  avg # of iterations =  2.0

 nt, nb, sum(vq) =     1    1      0.0000000000

     total cpu time spent up to now is       14.3 secs

     total energy              =     -28.67911178 Ry
     Harris-Foulkes estimate   =     -28.71462557 Ry
     estimated scf accuracy    <       0.10163212 Ry

     iteration #  4     ecut=   200.00 Ry     beta=0.50
     Davidson diagonalization with overlap

 nt, nb, sum(vq) =     1    1      0.0000000000
     ethr =  2.54E-03,  avg # of iterations =  1.0

 nt, nb, sum(vq) =     1    1      0.0000000000

     total cpu time spent up to now is       17.2 secs

     total energy              =     -28.68048436 Ry
     Harris-Foulkes estimate   =     -28.68132552 Ry
     estimated scf accuracy    <       0.00461138 Ry

     iteration #  5     ecut=   200.00 Ry     beta=0.50
     Davidson diagonalization with overlap

 nt, nb, sum(vq) =     1    1      0.0000000000
     ethr =  1.15E-04,  avg # of iterations =  1.0

 nt, nb, sum(vq) =     1    1      0.0000000000

     negative rho (up, down):  1.260E-06 0.000E+00

     total cpu time spent up to now is       20.1 secs

     total energy              =     -28.68068317 Ry
     Harris-Foulkes estimate   =     -28.68065796 Ry
     estimated scf accuracy    <       0.00007006 Ry

     iteration #  6     ecut=   200.00 Ry     beta=0.50
     Davidson diagonalization with overlap

 nt, nb, sum(vq) =     1    1      0.0000000000
     ethr =  1.75E-06,  avg # of iterations =  3.0

 nt, nb, sum(vq) =     1    1      0.0000000000

     total cpu time spent up to now is       23.6 secs

     total energy              =     -28.68071073 Ry
     Harris-Foulkes estimate   =     -28.68071880 Ry
     estimated scf accuracy    <       0.00001911 Ry

     iteration #  7     ecut=   200.00 Ry     beta=0.50
     Davidson diagonalization with overlap

 nt, nb, sum(vq) =     1    1      0.0000000000
     ethr =  4.78E-07,  avg # of iterations =  2.0

 nt, nb, sum(vq) =     1    1      0.0000000000

     total cpu time spent up to now is       26.0 secs

     End of self-consistent calculation

          k = 0.0000 0.0000 0.0000 (195269 PWs)   bands (ev):

  -104.6404  -5.4072

     highest occupied level (ev):    -5.4072

!    total energy              =     -28.68071268 Ry
     Harris-Foulkes estimate   =     -28.68071271 Ry
     estimated scf accuracy    <       0.00000018 Ry

     The total energy is the sum of the following terms:

     one-electron contribution =     -32.15217396 Ry
     hartree contribution      =      11.21281263 Ry
     xc contribution           =      -4.90405386 Ry
     ewald contribution        =      -2.83729748 Ry

     convergence has been achieved in   7 iterations

     Writing output data file pwscf.save

     init_run     :      2.27s CPU      2.62s WALL (       1 calls)
     electrons    :     22.72s CPU     23.48s WALL (       1 calls)

     Called by init_run:
     wfcinit      :      0.40s CPU      0.44s WALL (       1 calls)
     potinit      :      0.66s CPU      0.88s WALL (       1 calls)

     Called by electrons:
     c_bands      :      9.19s CPU      9.42s WALL (       7 calls)
     sum_band     :      4.48s CPU      4.56s WALL (       7 calls)
     v_of_rho     :      4.93s CPU      5.00s WALL (       8 calls)
     mix_rho      :      3.64s CPU      3.98s WALL (       7 calls)

     Called by c_bands:
     init_us_2    :      0.14s CPU      0.15s WALL (      15 calls)
     cegterg      :      9.10s CPU      9.33s WALL (       7 calls)

     Called by sum_band:

     Called by *egterg:
     h_psi        :      8.76s CPU      8.99s WALL (      28 calls)
     g_psi        :      0.11s CPU      0.11s WALL (      20 calls)
     cdiaghg      :      0.01s CPU      0.00s WALL (      27 calls)

     Called by h_psi:
     h_psi:pot    :      8.66s CPU      8.90s WALL (      28 calls)
     h_psi:calbec :      0.04s CPU      0.04s WALL (      28 calls)
     vloc_psi     :      8.58s CPU      8.81s WALL (      28 calls)
     add_vuspsi   :      0.04s CPU      0.05s WALL (      28 calls)

     General routines
     calbec       :      0.04s CPU      0.04s WALL (      28 calls)
     fft          :      3.19s CPU      3.31s WALL (      31 calls)
     fftw         :      8.16s CPU      8.40s WALL (     114 calls)

     Parallel routines
     fft_scatter  :      1.92s CPU      2.00s WALL (     145 calls)

     PWSCF        :    25.48s CPU        26.70s WALL


   This run was terminated on:   4:37: 3   2May2017            

=------------------------------------------------------------------------------=
   JOB DONE.
=------------------------------------------------------------------------------=
