
     Program PWSCF v.6.1 (svn rev. 13369) starts on  5Apr2017 at  4:21:37 

     This program is part of the open-source Quantum ESPRESSO suite
     for quantum simulation of materials; please cite
         "P. Giannozzi et al., J. Phys.:Condens. Matter 21 395502 (2009);
          URL http://www.quantum-espresso.org", 
     in publications or presentations arising from this work. More details at
     http://www.quantum-espresso.org/quote

     Parallel version (MPI), running on     1 processors
     Waiting for input...
     Reading input from standard input

     Current dimensions of program PWSCF are:
     Max number of different atomic species (ntypx) = 10
     Max number of k-points (npk) =  40000
     Max angular momentum in pseudopotentials (lmaxx) =  3
               file H.pw-mt_fhi.UPF: wavefunction(s)  2p 4f renormalized

     Subspace diagonalization in iterative solution of the eigenvalue problem:
     a serial algorithm will be used


     G-vector sticks info
     --------------------
     sticks:   dense  smooth     PW     G-vecs:    dense   smooth      PW
     Sum        6125    6125   1533               359085   359085   45025



     bravais-lattice index     =            0
     lattice parameter (alat)  =      16.0000  a.u.
     unit-cell volume          =    4096.0000 (a.u.)^3
     number of atoms/cell      =            1
     number of atomic types    =            1
     number of electrons       =         1.00
     number of Kohn-Sham states=            1
     kinetic-energy cutoff     =      75.0000  Ry
     charge density cutoff     =     300.0000  Ry
     convergence threshold     =      1.0E-06
     mixing beta               =       0.5000
     number of iterations used =            8  plain     mixing
     Exchange-correlation      = SLA-PW ( 1  4  0  0 0 0)

     celldm(1)=  16.000000  celldm(2)=   0.000000  celldm(3)=   0.000000
     celldm(4)=   0.000000  celldm(5)=   0.000000  celldm(6)=   0.000000

     crystal axes: (cart. coord. in units of alat)
               a(1) = (   1.000000   0.000000   0.000000 )  
               a(2) = (   0.000000   1.000000   0.000000 )  
               a(3) = (   0.000000   0.000000   1.000000 )  

     reciprocal axes: (cart. coord. in units 2 pi/alat)
               b(1) = (  1.000000  0.000000  0.000000 )  
               b(2) = (  0.000000  1.000000  0.000000 )  
               b(3) = (  0.000000  0.000000  1.000000 )  


     PseudoPot. # 1 for  H read from file:
     /home/efefer/pseudo/H.pw-mt_fhi.UPF
     MD5 check sum: 3073902e9141bece072f5309cc55519d
     Pseudo is Norm-conserving, Zval =  1.0
     Generated using FHI98PP, converted with fhi2upf.x v.5.0.1
     Using radial grid of  387 points,  3 beta functions with: 
                l(1) =   0
                l(2) =   1
                l(3) =   3

     atomic species   valence    mass     pseudopotential
        H              1.00     1.00000      H( 1.00)

     48 Sym. Ops., with inversion, found



   Cartesian axes

     site n.     atom                  positions (alat units)
         1           H   tau(   1) = (   0.0000000   0.0000000   0.0000000  )

     number of k points=     1
                       cart. coord. in units 2pi/alat
        k(    1) = (   0.0000000   0.0000000   0.0000000), wk =   2.0000000

     Dense  grid:   359085 G-vectors     FFT dimensions: (  90,  90,  90)

     Occupations read from input 

        1.0000

     Estimated max dynamical RAM per process >     204.85MB

     Initial potential from superposition of free atoms

     starting charge    0.99999, renormalised to    1.00000

     negative rho (up, down):  1.377E-05 0.000E+00
     Starting wfc are   16 randomized atomic wfcs

     total cpu time spent up to now is        1.7 secs

     per-process dynamical memory:   134.4 Mb

     Self-consistent Calculation

     iteration #  1     ecut=    75.00 Ry     beta=0.50
     Davidson diagonalization with overlap
     ethr =  1.00E-02,  avg # of iterations =  1.0

     Threshold (ethr) on eigenvalues was too large:
     Diagonalizing with lowered threshold

     Davidson diagonalization with overlap
     ethr =  1.43E-07,  avg # of iterations =  4.0

     total cpu time spent up to now is        2.7 secs

     End of self-consistent calculation

          k = 0.0000 0.0000 0.0000 ( 45025 PWs)   bands (ev):

    -6.2998

     highest occupied level (ev):    -6.2998

!    total energy              =      -0.89059016 Ry
     Harris-Foulkes estimate   =      -0.89058922 Ry
     estimated scf accuracy    <       0.00000032 Ry

     The total energy is the sum of the following terms:

     one-electron contribution =      -0.64040810 Ry
     hartree contribution      =       0.39026066 Ry
     xc contribution           =      -0.46311163 Ry
     ewald contribution        =      -0.17733109 Ry

     convergence has been achieved in   1 iterations

     Writing output data file pwscf.save

     init_run     :      1.53s CPU      1.60s WALL (       1 calls)
     electrons    :      1.04s CPU      1.06s WALL (       1 calls)

     Called by init_run:
     wfcinit      :      0.80s CPU      0.81s WALL (       1 calls)
     potinit      :      0.27s CPU      0.29s WALL (       1 calls)

     Called by electrons:
     c_bands      :      0.42s CPU      0.44s WALL (       2 calls)
     sum_band     :      0.34s CPU      0.33s WALL (       2 calls)
     v_of_rho     :      0.37s CPU      0.38s WALL (       2 calls)
     mix_rho      :      0.02s CPU      0.02s WALL (       2 calls)

     Called by c_bands:
     init_us_2    :      0.20s CPU      0.22s WALL (       5 calls)
     cegterg      :      0.29s CPU      0.29s WALL (       2 calls)

     Called by sum_band:

     Called by *egterg:
     h_psi        :      0.89s CPU      0.89s WALL (       8 calls)
     g_psi        :      0.01s CPU      0.00s WALL (       5 calls)
     cdiaghg      :      0.00s CPU      0.00s WALL (       6 calls)

     Called by h_psi:
     h_psi:pot    :      0.88s CPU      0.88s WALL (       8 calls)
     h_psi:calbec :      0.02s CPU      0.02s WALL (       8 calls)
     vloc_psi     :      0.85s CPU      0.84s WALL (       8 calls)
     add_vuspsi   :      0.02s CPU      0.02s WALL (       8 calls)

     General routines
     calbec       :      0.02s CPU      0.02s WALL (       8 calls)
     fft          :      0.19s CPU      0.21s WALL (       9 calls)
     fftw         :      0.72s CPU      0.73s WALL (      48 calls)

     Parallel routines
     fft_scatter  :      0.16s CPU      0.15s WALL (      57 calls)

     PWSCF        :     2.77s CPU         2.87s WALL


   This run was terminated on:   4:21:40   5Apr2017            

=------------------------------------------------------------------------------=
   JOB DONE.
=------------------------------------------------------------------------------=
