
     Program PWSCF v.6.1 (svn rev. 13369) starts on  5Apr2017 at  3:58:54 

     This program is part of the open-source Quantum ESPRESSO suite
     for quantum simulation of materials; please cite
         "P. Giannozzi et al., J. Phys.:Condens. Matter 21 395502 (2009);
          URL http://www.quantum-espresso.org", 
     in publications or presentations arising from this work. More details at
     http://www.quantum-espresso.org/quote

     Parallel version (MPI), running on     1 processors
     Waiting for input...
     Reading input from standard input

     Current dimensions of program PWSCF are:
     Max number of different atomic species (ntypx) = 10
     Max number of k-points (npk) =  40000
     Max angular momentum in pseudopotentials (lmaxx) =  3
               file H.pbe-mt_fhi.UPF: wavefunction(s)  2p 4f renormalized

     Subspace diagonalization in iterative solution of the eigenvalue problem:
     a serial algorithm will be used


     G-vector sticks info
     --------------------
     sticks:   dense  smooth     PW     G-vecs:    dense   smooth      PW
     Sum        4053    4053   1009               195269   195269   24405



     bravais-lattice index     =            0
     lattice parameter (alat)  =      16.0000  a.u.
     unit-cell volume          =    4096.0000 (a.u.)^3
     number of atoms/cell      =            1
     number of atomic types    =            1
     number of electrons       =         1.00
     number of Kohn-Sham states=            1
     kinetic-energy cutoff     =      50.0000  Ry
     charge density cutoff     =     200.0000  Ry
     convergence threshold     =      1.0E-06
     mixing beta               =       0.5000
     number of iterations used =            8  plain     mixing
     Exchange-correlation      = PBE ( 1  4  3  4 0 0)

     celldm(1)=  16.000000  celldm(2)=   0.000000  celldm(3)=   0.000000
     celldm(4)=   0.000000  celldm(5)=   0.000000  celldm(6)=   0.000000

     crystal axes: (cart. coord. in units of alat)
               a(1) = (   1.000000   0.000000   0.000000 )  
               a(2) = (   0.000000   1.000000   0.000000 )  
               a(3) = (   0.000000   0.000000   1.000000 )  

     reciprocal axes: (cart. coord. in units 2 pi/alat)
               b(1) = (  1.000000  0.000000  0.000000 )  
               b(2) = (  0.000000  1.000000  0.000000 )  
               b(3) = (  0.000000  0.000000  1.000000 )  


     PseudoPot. # 1 for  H read from file:
     /home/efefer/pseudo/H.pbe-mt_fhi.UPF
     MD5 check sum: a19bd5488733b3d98581df861506e80d
     Pseudo is Norm-conserving, Zval =  1.0
     Generated using FHI98PP, converted with fhi2upf.x v.5.0.2
     Using radial grid of  387 points,  3 beta functions with: 
                l(1) =   0
                l(2) =   1
                l(3) =   3

     atomic species   valence    mass     pseudopotential
        H              1.00     1.00000      H( 1.00)

     48 Sym. Ops., with inversion, found



   Cartesian axes

     site n.     atom                  positions (alat units)
         1           H   tau(   1) = (   0.0000000   0.0000000   0.0000000  )

     number of k points=     1
                       cart. coord. in units 2pi/alat
        k(    1) = (   0.0000000   0.0000000   0.0000000), wk =   2.0000000

     Dense  grid:   195269 G-vectors     FFT dimensions: (  75,  75,  75)

     Occupations read from input 

        1.0000

     Estimated max dynamical RAM per process >     113.15MB

     Initial potential from superposition of free atoms

     starting charge    0.99999, renormalised to    1.00000

     negative rho (up, down):  1.091E-05 0.000E+00
     Starting wfc are   16 randomized atomic wfcs

     total cpu time spent up to now is        1.3 secs

     per-process dynamical memory:    95.5 Mb

     Self-consistent Calculation

     iteration #  1     ecut=    50.00 Ry     beta=0.50
     Davidson diagonalization with overlap
     ethr =  1.00E-02,  avg # of iterations =  1.0

     Threshold (ethr) on eigenvalues was too large:
     Diagonalizing with lowered threshold

     Davidson diagonalization with overlap
     ethr =  1.46E-07,  avg # of iterations =  4.0

     total cpu time spent up to now is        2.1 secs

     End of self-consistent calculation

          k = 0.0000 0.0000 0.0000 ( 24405 PWs)   bands (ev):

    -6.4407

     highest occupied level (ev):    -6.4407

!    total energy              =      -0.91668622 Ry
     Harris-Foulkes estimate   =      -0.91667963 Ry
     estimated scf accuracy    <       0.00000038 Ry

     The total energy is the sum of the following terms:

     one-electron contribution =      -0.64313200 Ry
     hartree contribution      =       0.40409559 Ry
     xc contribution           =      -0.50031871 Ry
     ewald contribution        =      -0.17733110 Ry

     convergence has been achieved in   1 iterations

     Writing output data file pwscf.save

     init_run     :      1.08s CPU      1.14s WALL (       1 calls)
     electrons    :      0.82s CPU      0.86s WALL (       1 calls)

     Called by init_run:
     wfcinit      :      0.44s CPU      0.45s WALL (       1 calls)
     potinit      :      0.34s CPU      0.36s WALL (       1 calls)

     Called by electrons:
     c_bands      :      0.26s CPU      0.29s WALL (       2 calls)
     sum_band     :      0.21s CPU      0.22s WALL (       2 calls)
     v_of_rho     :      0.58s CPU      0.59s WALL (       2 calls)
     mix_rho      :      0.02s CPU      0.01s WALL (       2 calls)

     Called by c_bands:
     init_us_2    :      0.14s CPU      0.13s WALL (       5 calls)
     cegterg      :      0.18s CPU      0.22s WALL (       2 calls)

     Called by sum_band:

     Called by *egterg:
     h_psi        :      0.52s CPU      0.51s WALL (       8 calls)
     g_psi        :      0.00s CPU      0.00s WALL (       5 calls)
     cdiaghg      :      0.00s CPU      0.00s WALL (       6 calls)

     Called by h_psi:
     h_psi:pot    :      0.51s CPU      0.51s WALL (       8 calls)
     h_psi:calbec :      0.01s CPU      0.01s WALL (       8 calls)
     vloc_psi     :      0.48s CPU      0.49s WALL (       8 calls)
     add_vuspsi   :      0.02s CPU      0.01s WALL (       8 calls)

     General routines
     calbec       :      0.01s CPU      0.01s WALL (       8 calls)
     fft          :      0.29s CPU      0.29s WALL (      23 calls)
     fftw         :      0.43s CPU      0.43s WALL (      48 calls)

     Parallel routines
     fft_scatter  :      0.13s CPU      0.13s WALL (      71 calls)

     PWSCF        :     2.07s CPU         2.30s WALL


   This run was terminated on:   3:58:56   5Apr2017            

=------------------------------------------------------------------------------=
   JOB DONE.
=------------------------------------------------------------------------------=
