
     Program PWSCF v.6.1 (svn rev. 13369) starts on 10Apr2017 at  8:15:43 

     This program is part of the open-source Quantum ESPRESSO suite
     for quantum simulation of materials; please cite
         "P. Giannozzi et al., J. Phys.:Condens. Matter 21 395502 (2009);
          URL http://www.quantum-espresso.org", 
     in publications or presentations arising from this work. More details at
     http://www.quantum-espresso.org/quote

     Parallel version (MPI), running on     1 processors
     Waiting for input...
     Reading input from standard input

     Current dimensions of program PWSCF are:
     Max number of different atomic species (ntypx) = 10
     Max number of k-points (npk) =  40000
     Max angular momentum in pseudopotentials (lmaxx) =  3

     Subspace diagonalization in iterative solution of the eigenvalue problem:
     a serial algorithm will be used


     G-vector sticks info
     --------------------
     sticks:   dense  smooth     PW     G-vecs:    dense   smooth      PW
     Sum        4053    4053   1009               195269   195269   24405



     bravais-lattice index     =            0
     lattice parameter (alat)  =      16.0000  a.u.
     unit-cell volume          =    4096.0000 (a.u.)^3
     number of atoms/cell      =            1
     number of atomic types    =            1
     number of electrons       =         4.00
     number of Kohn-Sham states=            2
     kinetic-energy cutoff     =      50.0000  Ry
     charge density cutoff     =     200.0000  Ry
     convergence threshold     =      1.0E-06
     mixing beta               =       0.5000
     number of iterations used =            8  plain     mixing
     Exchange-correlation      = PZ ( 1  1  0  0 0 0)

     celldm(1)=  16.000000  celldm(2)=   0.000000  celldm(3)=   0.000000
     celldm(4)=   0.000000  celldm(5)=   0.000000  celldm(6)=   0.000000

     crystal axes: (cart. coord. in units of alat)
               a(1) = (   1.000000   0.000000   0.000000 )  
               a(2) = (   0.000000   1.000000   0.000000 )  
               a(3) = (   0.000000   0.000000   1.000000 )  

     reciprocal axes: (cart. coord. in units 2 pi/alat)
               b(1) = (  1.000000  0.000000  0.000000 )  
               b(2) = (  0.000000  1.000000  0.000000 )  
               b(3) = (  0.000000  0.000000  1.000000 )  


     PseudoPot. # 1 for Ge read from file:
     ./Ge.4.LDA.gth
     MD5 check sum: d8cee8af69abc1f5c7640b08bbadb6d9
     Pseudo is Norm-conserving, Zval =  4.0
     GTH norm-conserving PP, generated by Matthias Krack
     Using radial grid of 1207 points,  6 beta functions with: 
                l(1) =   0
                l(2) =   0
                l(3) =   0
                l(4) =   1
                l(5) =   1
                l(6) =   2

     atomic species   valence    mass     pseudopotential
        Ge             4.00    72.64000     Ge( 1.00)

     48 Sym. Ops., with inversion, found



   Cartesian axes

     site n.     atom                  positions (alat units)
         1           Ge  tau(   1) = (   0.0000000   0.0000000   0.0000000  )

     number of k points=     1
                       cart. coord. in units 2pi/alat
        k(    1) = (   0.0000000   0.0000000   0.0000000), wk =   2.0000000

     Dense  grid:   195269 G-vectors     FFT dimensions: (  75,  75,  75)

     Estimated max dynamical RAM per process >     116.14MB

     Initial potential from superposition of free atoms
     Starting wfc are random

 nt, nb, sum(vq) =     1    1    550.4659984057

 nt, nb, sum(vq) =     1    2     22.0595357813

 nt, nb, sum(vq) =     1    3    -39.8598085520

 nt, nb, sum(vq) =     1    4    536.9745824988

 nt, nb, sum(vq) =     1    5    185.0873376832

 nt, nb, sum(vq) =     1    6    425.5594117342
 sum(vkb_) =  (  150.26222695807598     ,  1.0726228932833592E-014)

     total cpu time spent up to now is        1.4 secs

     per-process dynamical memory:    87.2 Mb

     Self-consistent Calculation

     iteration #  1     ecut=    50.00 Ry     beta=0.50
     Davidson diagonalization with overlap

 nt, nb, sum(vq) =     1    1    550.4659984057

 nt, nb, sum(vq) =     1    2     22.0595357813

 nt, nb, sum(vq) =     1    3    -39.8598085520

 nt, nb, sum(vq) =     1    4    536.9745824988

 nt, nb, sum(vq) =     1    5    185.0873376832

 nt, nb, sum(vq) =     1    6    425.5594117342
 sum(vkb_) =  (  150.26222695807598     ,  1.0726228932833592E-014)
     ethr =  1.00E-02,  avg # of iterations =  7.0

 nt, nb, sum(vq) =     1    1    550.4659984057

 nt, nb, sum(vq) =     1    2     22.0595357813

 nt, nb, sum(vq) =     1    3    -39.8598085520

 nt, nb, sum(vq) =     1    4    536.9745824988

 nt, nb, sum(vq) =     1    5    185.0873376832

 nt, nb, sum(vq) =     1    6    425.5594117342
 sum(vkb_) =  (  150.26222695807598     ,  1.0726228932833592E-014)

     total cpu time spent up to now is        2.2 secs

     total energy              =      -7.14812882 Ry
     Harris-Foulkes estimate   =      -8.42288465 Ry
     estimated scf accuracy    <       2.35909715 Ry

     iteration #  2     ecut=    50.00 Ry     beta=0.50
     Davidson diagonalization with overlap

 nt, nb, sum(vq) =     1    1    550.4659984057

 nt, nb, sum(vq) =     1    2     22.0595357813

 nt, nb, sum(vq) =     1    3    -39.8598085520

 nt, nb, sum(vq) =     1    4    536.9745824988

 nt, nb, sum(vq) =     1    5    185.0873376832

 nt, nb, sum(vq) =     1    6    425.5594117342
 sum(vkb_) =  (  150.26222695807598     ,  1.0726228932833592E-014)
     ethr =  1.00E-02,  avg # of iterations =  3.0

 nt, nb, sum(vq) =     1    1    550.4659984057

 nt, nb, sum(vq) =     1    2     22.0595357813

 nt, nb, sum(vq) =     1    3    -39.8598085520

 nt, nb, sum(vq) =     1    4    536.9745824988

 nt, nb, sum(vq) =     1    5    185.0873376832

 nt, nb, sum(vq) =     1    6    425.5594117342
 sum(vkb_) =  (  150.26222695807598     ,  1.0726228932833592E-014)

     total cpu time spent up to now is        2.8 secs

     total energy              =      -7.60824055 Ry
     Harris-Foulkes estimate   =      -7.65067666 Ry
     estimated scf accuracy    <       0.16800946 Ry

     iteration #  3     ecut=    50.00 Ry     beta=0.50
     Davidson diagonalization with overlap

 nt, nb, sum(vq) =     1    1    550.4659984057

 nt, nb, sum(vq) =     1    2     22.0595357813

 nt, nb, sum(vq) =     1    3    -39.8598085520

 nt, nb, sum(vq) =     1    4    536.9745824988

 nt, nb, sum(vq) =     1    5    185.0873376832

 nt, nb, sum(vq) =     1    6    425.5594117342
 sum(vkb_) =  (  150.26222695807598     ,  1.0726228932833592E-014)
     ethr =  4.20E-03,  avg # of iterations =  1.0

 nt, nb, sum(vq) =     1    1    550.4659984057

 nt, nb, sum(vq) =     1    2     22.0595357813

 nt, nb, sum(vq) =     1    3    -39.8598085520

 nt, nb, sum(vq) =     1    4    536.9745824988

 nt, nb, sum(vq) =     1    5    185.0873376832

 nt, nb, sum(vq) =     1    6    425.5594117342
 sum(vkb_) =  (  150.26222695807598     ,  1.0726228932833592E-014)

     total cpu time spent up to now is        3.2 secs

     total energy              =      -7.60614894 Ry
     Harris-Foulkes estimate   =      -7.61059126 Ry
     estimated scf accuracy    <       0.04026583 Ry

     iteration #  4     ecut=    50.00 Ry     beta=0.50
     Davidson diagonalization with overlap

 nt, nb, sum(vq) =     1    1    550.4659984057

 nt, nb, sum(vq) =     1    2     22.0595357813

 nt, nb, sum(vq) =     1    3    -39.8598085520

 nt, nb, sum(vq) =     1    4    536.9745824988

 nt, nb, sum(vq) =     1    5    185.0873376832

 nt, nb, sum(vq) =     1    6    425.5594117342
 sum(vkb_) =  (  150.26222695807598     ,  1.0726228932833592E-014)
     ethr =  1.01E-03,  avg # of iterations =  1.0

 nt, nb, sum(vq) =     1    1    550.4659984057

 nt, nb, sum(vq) =     1    2     22.0595357813

 nt, nb, sum(vq) =     1    3    -39.8598085520

 nt, nb, sum(vq) =     1    4    536.9745824988

 nt, nb, sum(vq) =     1    5    185.0873376832

 nt, nb, sum(vq) =     1    6    425.5594117342
 sum(vkb_) =  (  150.26222695807598     ,  1.0726228932833592E-014)

     negative rho (up, down):  5.090E-04 0.000E+00

     total cpu time spent up to now is        3.6 secs

     total energy              =      -7.60727834 Ry
     Harris-Foulkes estimate   =      -7.60706322 Ry
     estimated scf accuracy    <       0.00004963 Ry

     iteration #  5     ecut=    50.00 Ry     beta=0.50
     Davidson diagonalization with overlap

 nt, nb, sum(vq) =     1    1    550.4659984057

 nt, nb, sum(vq) =     1    2     22.0595357813

 nt, nb, sum(vq) =     1    3    -39.8598085520

 nt, nb, sum(vq) =     1    4    536.9745824988

 nt, nb, sum(vq) =     1    5    185.0873376832

 nt, nb, sum(vq) =     1    6    425.5594117342
 sum(vkb_) =  (  150.26222695807598     ,  1.0726228932833592E-014)
     ethr =  1.24E-06,  avg # of iterations =  3.0

 nt, nb, sum(vq) =     1    1    550.4659984057

 nt, nb, sum(vq) =     1    2     22.0595357813

 nt, nb, sum(vq) =     1    3    -39.8598085520

 nt, nb, sum(vq) =     1    4    536.9745824988

 nt, nb, sum(vq) =     1    5    185.0873376832

 nt, nb, sum(vq) =     1    6    425.5594117342
 sum(vkb_) =  (  150.26222695807598     ,  1.0726228932833592E-014)

     negative rho (up, down):  4.217E-04 0.000E+00

     total cpu time spent up to now is        4.1 secs

     total energy              =      -7.60743100 Ry
     Harris-Foulkes estimate   =      -7.60743729 Ry
     estimated scf accuracy    <       0.00003593 Ry

     iteration #  6     ecut=    50.00 Ry     beta=0.50
     Davidson diagonalization with overlap

 nt, nb, sum(vq) =     1    1    550.4659984057

 nt, nb, sum(vq) =     1    2     22.0595357813

 nt, nb, sum(vq) =     1    3    -39.8598085520

 nt, nb, sum(vq) =     1    4    536.9745824988

 nt, nb, sum(vq) =     1    5    185.0873376832

 nt, nb, sum(vq) =     1    6    425.5594117342
 sum(vkb_) =  (  150.26222695807598     ,  1.0726228932833592E-014)
     ethr =  8.98E-07,  avg # of iterations =  2.0

 nt, nb, sum(vq) =     1    1    550.4659984057

 nt, nb, sum(vq) =     1    2     22.0595357813

 nt, nb, sum(vq) =     1    3    -39.8598085520

 nt, nb, sum(vq) =     1    4    536.9745824988

 nt, nb, sum(vq) =     1    5    185.0873376832

 nt, nb, sum(vq) =     1    6    425.5594117342
 sum(vkb_) =  (  150.26222695807598     ,  1.0726228932833592E-014)

     total cpu time spent up to now is        4.6 secs

     total energy              =      -7.60743630 Ry
     Harris-Foulkes estimate   =      -7.60743422 Ry
     estimated scf accuracy    <       0.00000284 Ry

     iteration #  7     ecut=    50.00 Ry     beta=0.50
     Davidson diagonalization with overlap

 nt, nb, sum(vq) =     1    1    550.4659984057

 nt, nb, sum(vq) =     1    2     22.0595357813

 nt, nb, sum(vq) =     1    3    -39.8598085520

 nt, nb, sum(vq) =     1    4    536.9745824988

 nt, nb, sum(vq) =     1    5    185.0873376832

 nt, nb, sum(vq) =     1    6    425.5594117342
 sum(vkb_) =  (  150.26222695807598     ,  1.0726228932833592E-014)
     ethr =  7.10E-08,  avg # of iterations =  2.0

 nt, nb, sum(vq) =     1    1    550.4659984057

 nt, nb, sum(vq) =     1    2     22.0595357813

 nt, nb, sum(vq) =     1    3    -39.8598085520

 nt, nb, sum(vq) =     1    4    536.9745824988

 nt, nb, sum(vq) =     1    5    185.0873376832

 nt, nb, sum(vq) =     1    6    425.5594117342
 sum(vkb_) =  (  150.26222695807598     ,  1.0726228932833592E-014)

     total cpu time spent up to now is        5.0 secs

     End of self-consistent calculation

          k = 0.0000 0.0000 0.0000 ( 24405 PWs)   bands (ev):

   -11.4792  -3.5852

     highest occupied level (ev):    -3.5852

!    total energy              =      -7.60743705 Ry
     Harris-Foulkes estimate   =      -7.60743662 Ry
     estimated scf accuracy    <       0.00000003 Ry

     The total energy is the sum of the following terms:

     one-electron contribution =      -5.97507951 Ry
     hartree contribution      =       3.14216019 Ry
     xc contribution           =      -1.93722018 Ry
     ewald contribution        =      -2.83729755 Ry

     convergence has been achieved in   7 iterations

     Writing output data file pwscf.save

     init_run     :      0.46s CPU      1.08s WALL (       1 calls)
     electrons    :      3.34s CPU      3.67s WALL (       1 calls)

     Called by init_run:
     wfcinit      :      0.08s CPU      0.40s WALL (       1 calls)
     potinit      :      0.15s CPU      0.20s WALL (       1 calls)

     Called by electrons:
     c_bands      :      1.42s CPU      1.48s WALL (       7 calls)
     sum_band     :      0.72s CPU      0.72s WALL (       7 calls)
     v_of_rho     :      0.66s CPU      0.68s WALL (       8 calls)
     mix_rho      :      0.47s CPU      0.62s WALL (       7 calls)

     Called by c_bands:
     init_us_2    :      0.30s CPU      0.30s WALL (      15 calls)
     cegterg      :      1.14s CPU      1.19s WALL (       7 calls)

     Called by sum_band:

     Called by *egterg:
     h_psi        :      1.12s CPU      1.17s WALL (      27 calls)
     g_psi        :      0.01s CPU      0.01s WALL (      19 calls)
     cdiaghg      :      0.01s CPU      0.32s WALL (      26 calls)

     Called by h_psi:
     h_psi:pot    :      1.10s CPU      1.16s WALL (      27 calls)
     h_psi:calbec :      0.04s CPU      0.08s WALL (      27 calls)
     vloc_psi     :      1.02s CPU      1.03s WALL (      27 calls)
     add_vuspsi   :      0.04s CPU      0.04s WALL (      27 calls)

     General routines
     calbec       :      0.04s CPU      0.08s WALL (      27 calls)
     fft          :      0.41s CPU      0.65s WALL (      31 calls)
     fftw         :      0.95s CPU      0.99s WALL (     112 calls)

     Parallel routines
     fft_scatter  :      0.24s CPU      0.25s WALL (     143 calls)

     PWSCF        :     3.92s CPU         5.20s WALL


   This run was terminated on:   8:15:48  10Apr2017            

=------------------------------------------------------------------------------=
   JOB DONE.
=------------------------------------------------------------------------------=
