 CRYSTAL
 PRIMVEC
    5.000000000    0.000000000    0.000000000
    0.000000000    5.000000000    0.000000000
    0.000000000    0.000000000    5.000000000
 PRIMCOORD
           1           1
Si        0.000000000    0.000000000    0.000000000
