
     Program PWSCF v.6.0 (svn rev. 13079) starts on  6Jan2017 at  9:45:19 

     This program is part of the open-source Quantum ESPRESSO suite
     for quantum simulation of materials; please cite
         "P. Giannozzi et al., J. Phys.:Condens. Matter 21 395502 (2009);
          URL http://www.quantum-espresso.org", 
     in publications or presentations arising from this work. More details at
     http://www.quantum-espresso.org/quote

     Parallel version (MPI), running on     1 processors
     Waiting for input...
     Reading input from standard input
     Message from routine setup:
     the system is metallic, specify occupations

     Subspace diagonalization in iterative solution of the eigenvalue problem:
     a serial algorithm will be used


     G-vector sticks info
     --------------------
     sticks:   dense  smooth     PW     G-vecs:    dense   smooth      PW
     Sum        2861    2861    717               114497   114497   14243



     bravais-lattice index     =            0
     lattice parameter (alat)  =      16.0000  a.u.
     unit-cell volume          =    4096.0000 (a.u.)^3
     number of atoms/cell      =            1
     number of atomic types    =            1
     number of electrons       =         1.00
     number of Kohn-Sham states=            2
     kinetic-energy cutoff     =      35.0000  Ry
     charge density cutoff     =     140.0000  Ry
     convergence threshold     =      1.0E-06
     mixing beta               =       0.5000
     number of iterations used =            8  plain     mixing
     Exchange-correlation      =  SLA  PW   PBX  PBC ( 1  4  3  4 0 0)

     celldm(1)=  16.000000  celldm(2)=   0.000000  celldm(3)=   0.000000
     celldm(4)=   0.000000  celldm(5)=   0.000000  celldm(6)=   0.000000

     crystal axes: (cart. coord. in units of alat)
               a(1) = (   1.000000   0.000000   0.000000 )  
               a(2) = (   0.000000   1.000000   0.000000 )  
               a(3) = (   0.000000   0.000000   1.000000 )  

     reciprocal axes: (cart. coord. in units 2 pi/alat)
               b(1) = (  1.000000  0.000000  0.000000 )  
               b(2) = (  0.000000  1.000000  0.000000 )  
               b(3) = (  0.000000  0.000000  1.000000 )  


     PseudoPot. # 1 for  H read from file:
     /home/efefer/pseudo/H.pbe-kjpaw.UPF
     MD5 check sum: b6732a8c2b51919c45a22ac3ed50cb01
     Pseudo is Projector augmented-wave, Zval =  1.0
     Generated using "atomic" code by A. Dal Corso (espresso distribution)
     Shape of augmentation charge: PSQ
     Using radial grid of  929 points,  2 beta functions with: 
                l(1) =   0
                l(2) =   0
     Q(r) pseudized with 0 coefficients 


     atomic species   valence    mass     pseudopotential
        H              1.00     1.00000      H( 1.00)

     48 Sym. Ops., with inversion, found



   Cartesian axes

     site n.     atom                  positions (alat units)
         1           H   tau(   1) = (   0.0000000   0.0000000   0.0000000  )

     number of k points=     1
                       cart. coord. in units 2pi/alat
        k(    1) = (   0.0000000   0.0000000   0.0000000), wk =   2.0000000

     Dense  grid:   114497 G-vectors     FFT dimensions: (  64,  64,  64)

     Estimated max dynamical RAM per process >      68.23Mb

     Initial potential from superposition of free atoms
     Check: negative starting charge=   -0.001368

     starting charge    0.99999, renormalised to    1.00000

     negative rho (up, down):  1.368E-03 0.000E+00
     Starting wfc are    1 randomized atomic wfcs +    1 random wfc
     Checking if some PAW data can be deallocated... 

 sum(strf)  =  (  114497.00000000000     ,  0.0000000000000000     )
 gstart     =            2
 gamma_only =  F
 dual       =    4.0000000000000000     
 tpiba2     =   0.15421256876702122     
 ecutwf     =    35.000000000000000     
 gcutm      =    907.83780543534647     
 omega      =    4096.0000000000000     
 alat       =    16.000000000000000     
 shape(ityp) =            1
 shape(zv)   =           10
 zv =    1.0000000000000000        0.0000000000000000        0.0000000000000000        0.0000000000000000        0.0000000000000000        0.0000000000000000        0.0000000000000000        0.0000000000000000        0.0000000000000000        0.0000000000000000     

 Ene_Ewald (in Ha) =      -0.0886655760

     init_run     :      0.52s CPU      0.56s WALL (       1 calls)

     Called by init_run:
     wfcinit      :      0.03s CPU      0.03s WALL (       1 calls)
     potinit      :      0.25s CPU      0.27s WALL (       1 calls)

     Called by electrons:
     v_of_rho     :      0.20s CPU      0.22s WALL (       1 calls)
     newd         :      0.01s CPU      0.02s WALL (       1 calls)
     PAW_pot      :      0.00s CPU      0.00s WALL (       1 calls)

     Called by c_bands:
     init_us_2    :      0.00s CPU      0.00s WALL (       1 calls)

     Called by sum_band:

     Called by *egterg:
     h_psi        :      0.02s CPU      0.02s WALL (       1 calls)
     s_psi        :      0.00s CPU      0.00s WALL (       1 calls)
     cdiaghg      :      0.00s CPU      0.00s WALL (       1 calls)

     Called by h_psi:
     h_psi:pot    :      0.02s CPU      0.02s WALL (       1 calls)
     h_psi:calbec :      0.00s CPU      0.00s WALL (       1 calls)
     vloc_psi     :      0.02s CPU      0.02s WALL (       1 calls)
     add_vuspsi   :      0.00s CPU      0.00s WALL (       1 calls)

     General routines
     calbec       :      0.00s CPU      0.00s WALL (       1 calls)
     fft          :      0.07s CPU      0.08s WALL (      12 calls)
     fftw         :      0.02s CPU      0.02s WALL (       4 calls)

     Parallel routines
     fft_scatter  :      0.02s CPU      0.03s WALL (      16 calls)

     PWSCF        :     0.65s CPU         0.69s WALL


   This run was terminated on:   9:45:19   6Jan2017            

=------------------------------------------------------------------------------=
   JOB DONE.
=------------------------------------------------------------------------------=
