
     Program PWSCF v.6.1 (svn rev. 13369) starts on 22Mar2017 at 14:59:23 

     This program is part of the open-source Quantum ESPRESSO suite
     for quantum simulation of materials; please cite
         "P. Giannozzi et al., J. Phys.:Condens. Matter 21 395502 (2009);
          URL http://www.quantum-espresso.org", 
     in publications or presentations arising from this work. More details at
     http://www.quantum-espresso.org/quote

     Parallel version (MPI), running on     1 processors
     Waiting for input...
     Reading input from standard input

     Current dimensions of program PWSCF are:
     Max number of different atomic species (ntypx) = 10
     Max number of k-points (npk) =  40000
     Max angular momentum in pseudopotentials (lmaxx) =  3

     Subspace diagonalization in iterative solution of the eigenvalue problem:
     a serial algorithm will be used


     G-vector sticks info
     --------------------
     sticks:   dense  smooth     PW     G-vecs:    dense   smooth      PW
     Sum        4053    4053   1009               195269   195269   24405



     bravais-lattice index     =            0
     lattice parameter (alat)  =      16.0000  a.u.
     unit-cell volume          =    4096.0000 (a.u.)^3
     number of atoms/cell      =            1
     number of atomic types    =            1
     number of electrons       =         1.00
     number of Kohn-Sham states=            1
     kinetic-energy cutoff     =      50.0000  Ry
     charge density cutoff     =     200.0000  Ry
     convergence threshold     =      1.0E-06
     mixing beta               =       0.5000
     number of iterations used =            8  plain     mixing
     Exchange-correlation      = PZ ( 1  1  0  0 0 0)

     celldm(1)=  16.000000  celldm(2)=   0.000000  celldm(3)=   0.000000
     celldm(4)=   0.000000  celldm(5)=   0.000000  celldm(6)=   0.000000

     crystal axes: (cart. coord. in units of alat)
               a(1) = (   1.000000   0.000000   0.000000 )  
               a(2) = (   0.000000   1.000000   0.000000 )  
               a(3) = (   0.000000   0.000000   1.000000 )  

     reciprocal axes: (cart. coord. in units 2 pi/alat)
               b(1) = (  1.000000  0.000000  0.000000 )  
               b(2) = (  0.000000  1.000000  0.000000 )  
               b(3) = (  0.000000  0.000000  1.000000 )  


     PseudoPot. # 1 for  H read from file:
     ./H.1.LDA.gth
     MD5 check sum: 84e4bc3408560b7da5b84c14df2f01d1
     Pseudo is Norm-conserving, Zval =  1.0
     GTH norm-conserving PP, generated by Matthias Krack
     Using radial grid of  929 points,  1 beta functions with: 
                l(1) =   0

     atomic species   valence    mass     pseudopotential
        H              1.00     1.00000      H( 1.00)

     48 Sym. Ops., with inversion, found



   Cartesian axes

     site n.     atom                  positions (alat units)
         1           H   tau(   1) = (   0.0000000   0.0000000   0.0000000  )

     number of k points=     1
                       cart. coord. in units 2pi/alat
        k(    1) = (   0.0000000   0.0000000   0.0000000), wk =   2.0000000

     Dense  grid:   195269 G-vectors     FFT dimensions: (  75,  75,  75)

     Occupations read from input 

        1.0000

     Estimated max dynamical RAM per process >     109.42MB

     Initial potential from superposition of free atoms

     negative rho (up, down):  1.987E-08 0.000E+00
     Starting wfc are random

     total cpu time spent up to now is        0.4 secs

     per-process dynamical memory:    80.3 Mb

     Self-consistent Calculation

     iteration #  1     ecut=    50.00 Ry     beta=0.50
     Davidson diagonalization with overlap
     ethr =  1.00E-02,  avg # of iterations = 10.0

     total cpu time spent up to now is        0.9 secs

     total energy              =      -0.88703586 Ry
     Harris-Foulkes estimate   =      -0.90565321 Ry
     estimated scf accuracy    <       0.14494845 Ry

     iteration #  2     ecut=    50.00 Ry     beta=0.50
     Davidson diagonalization with overlap
     ethr =  1.00E-02,  avg # of iterations =  1.0

     total cpu time spent up to now is        1.2 secs

     total energy              =      -0.88171741 Ry
     Harris-Foulkes estimate   =      -0.89097613 Ry
     estimated scf accuracy    <       0.02727228 Ry

     iteration #  3     ecut=    50.00 Ry     beta=0.50
     Davidson diagonalization with overlap
     ethr =  2.73E-03,  avg # of iterations =  2.0

     total cpu time spent up to now is        1.5 secs

     total energy              =      -0.88714105 Ry
     Harris-Foulkes estimate   =      -0.88754034 Ry
     estimated scf accuracy    <       0.00106128 Ry

     iteration #  4     ecut=    50.00 Ry     beta=0.50
     Davidson diagonalization with overlap
     ethr =  1.06E-04,  avg # of iterations =  1.0

     negative rho (up, down):  1.416E-04 0.000E+00

     total cpu time spent up to now is        1.8 secs

     total energy              =      -0.88732544 Ry
     Harris-Foulkes estimate   =      -0.88723196 Ry
     estimated scf accuracy    <       0.00007519 Ry

     iteration #  5     ecut=    50.00 Ry     beta=0.50
     Davidson diagonalization with overlap
     ethr =  7.52E-06,  avg # of iterations =  2.0

     negative rho (up, down):  1.030E-04 0.000E+00

     total cpu time spent up to now is        2.1 secs

     total energy              =      -0.88735069 Ry
     Harris-Foulkes estimate   =      -0.88735603 Ry
     estimated scf accuracy    <       0.00007559 Ry

     iteration #  6     ecut=    50.00 Ry     beta=0.50
     Davidson diagonalization with overlap
     ethr =  7.52E-06,  avg # of iterations =  1.0

     total cpu time spent up to now is        2.4 secs

     total energy              =      -0.88732851 Ry
     Harris-Foulkes estimate   =      -0.88735090 Ry
     estimated scf accuracy    <       0.00006035 Ry

     iteration #  7     ecut=    50.00 Ry     beta=0.50
     Davidson diagonalization with overlap
     ethr =  6.04E-06,  avg # of iterations =  2.0

     total cpu time spent up to now is        2.8 secs

     total energy              =      -0.88733277 Ry
     Harris-Foulkes estimate   =      -0.88733689 Ry
     estimated scf accuracy    <       0.00001378 Ry

     iteration #  8     ecut=    50.00 Ry     beta=0.50
     Davidson diagonalization with overlap
     ethr =  1.38E-06,  avg # of iterations =  1.0

     total cpu time spent up to now is        3.0 secs

     End of self-consistent calculation

          k = 0.0000 0.0000 0.0000 ( 24405 PWs)   bands (ev):

    -6.2842

     highest occupied level (ev):    -6.2842

!    total energy              =      -0.88733351 Ry
     Harris-Foulkes estimate   =      -0.88733351 Ry
     estimated scf accuracy    <       0.00000015 Ry

     The total energy is the sum of the following terms:

     one-electron contribution =      -0.63602852 Ry
     hartree contribution      =       0.38871577 Ry
     xc contribution           =      -0.46268967 Ry
     ewald contribution        =      -0.17733110 Ry

     convergence has been achieved in   8 iterations

     Writing output data file pwscf.save

     init_run     :      0.28s CPU      0.34s WALL (       1 calls)
     electrons    :      2.60s CPU      2.69s WALL (       1 calls)

     Called by init_run:
     wfcinit      :      0.03s CPU      0.03s WALL (       1 calls)
     potinit      :      0.08s CPU      0.11s WALL (       1 calls)

     Called by electrons:
     c_bands      :      0.66s CPU      0.66s WALL (       8 calls)
     sum_band     :      0.58s CPU      0.60s WALL (       8 calls)
     v_of_rho     :      0.68s CPU      0.71s WALL (       9 calls)
     mix_rho      :      0.61s CPU      0.64s WALL (       8 calls)

     Called by c_bands:
     init_us_2    :      0.04s CPU      0.02s WALL (      17 calls)
     cegterg      :      0.64s CPU      0.65s WALL (       8 calls)

     Called by sum_band:

     Called by *egterg:
     h_psi        :      0.60s CPU      0.64s WALL (      29 calls)
     g_psi        :      0.01s CPU      0.01s WALL (      20 calls)
     cdiaghg      :      0.01s CPU      0.00s WALL (      28 calls)

     Called by h_psi:
     h_psi:pot    :      0.60s CPU      0.63s WALL (      29 calls)
     h_psi:calbec :      0.00s CPU      0.00s WALL (      29 calls)
     vloc_psi     :      0.60s CPU      0.62s WALL (      29 calls)
     add_vuspsi   :      0.00s CPU      0.00s WALL (      29 calls)

     General routines
     calbec       :      0.00s CPU      0.00s WALL (      29 calls)
     fft          :      0.42s CPU      0.45s WALL (      35 calls)
     fftw         :      0.56s CPU      0.58s WALL (      66 calls)

     Parallel routines
     fft_scatter  :      0.22s CPU      0.21s WALL (     101 calls)

     PWSCF        :     3.00s CPU         3.16s WALL


   This run was terminated on:  14:59:26  22Mar2017            

=------------------------------------------------------------------------------=
   JOB DONE.
=------------------------------------------------------------------------------=
