
     Program PWSCF v.6.1 (svn rev. 13369) starts on  1Apr2017 at  6:25:23 

     This program is part of the open-source Quantum ESPRESSO suite
     for quantum simulation of materials; please cite
         "P. Giannozzi et al., J. Phys.:Condens. Matter 21 395502 (2009);
          URL http://www.quantum-espresso.org", 
     in publications or presentations arising from this work. More details at
     http://www.quantum-espresso.org/quote

     Parallel version (MPI), running on     1 processors
     Waiting for input...
     Reading input from standard input

     Current dimensions of program PWSCF are:
     Max number of different atomic species (ntypx) = 10
     Max number of k-points (npk) =  40000
     Max angular momentum in pseudopotentials (lmaxx) =  3

     Subspace diagonalization in iterative solution of the eigenvalue problem:
     a serial algorithm will be used


     G-vector sticks info
     --------------------
     sticks:   dense  smooth     PW     G-vecs:    dense   smooth      PW
     Sum        4053    4053   1009               195269   195269   24405



     bravais-lattice index     =            0
     lattice parameter (alat)  =      16.0000  a.u.
     unit-cell volume          =    4096.0000 (a.u.)^3
     number of atoms/cell      =            1
     number of atomic types    =            1
     number of electrons       =         1.00
     number of Kohn-Sham states=            1
     kinetic-energy cutoff     =      50.0000  Ry
     charge density cutoff     =     200.0000  Ry
     convergence threshold     =      1.0E-06
     mixing beta               =       0.5000
     number of iterations used =            8  plain     mixing
     Exchange-correlation      = PZ ( 1  1  0  0 0 0)
     Assuming isolated system, Martyna-Tuckerman method


     celldm(1)=  16.000000  celldm(2)=   0.000000  celldm(3)=   0.000000
     celldm(4)=   0.000000  celldm(5)=   0.000000  celldm(6)=   0.000000

     crystal axes: (cart. coord. in units of alat)
               a(1) = (   1.000000   0.000000   0.000000 )  
               a(2) = (   0.000000   1.000000   0.000000 )  
               a(3) = (   0.000000   0.000000   1.000000 )  

     reciprocal axes: (cart. coord. in units 2 pi/alat)
               b(1) = (  1.000000  0.000000  0.000000 )  
               b(2) = (  0.000000  1.000000  0.000000 )  
               b(3) = (  0.000000  0.000000  1.000000 )  


     PseudoPot. # 1 for  H read from file:
     ./H.1.LDA.gth
     MD5 check sum: 84e4bc3408560b7da5b84c14df2f01d1
     Pseudo is Norm-conserving, Zval =  1.0
     GTH norm-conserving PP, generated by Matthias Krack
     Using radial grid of  929 points,  1 beta functions with: 
                l(1) =   0

     atomic species   valence    mass     pseudopotential
        H              1.00     1.00000      H( 1.00)

     48 Sym. Ops., with inversion, found



   Cartesian axes

     site n.     atom                  positions (alat units)
         1           H   tau(   1) = (   0.0000000   0.0000000   0.0000000  )

     number of k points=     1
                       cart. coord. in units 2pi/alat
        k(    1) = (   0.0000000   0.0000000   0.0000000), wk =   2.0000000

     Dense  grid:   195269 G-vectors     FFT dimensions: (  75,  75,  75)

     Occupations read from input 

        1.0000

     Estimated max dynamical RAM per process >     109.42MB

     Initial potential from superposition of free atoms

     negative rho (up, down):  1.987E-08 0.000E+00
     Starting wfc are random

     total cpu time spent up to now is        1.7 secs

     per-process dynamical memory:    81.8 Mb

     Self-consistent Calculation

     iteration #  1     ecut=    50.00 Ry     beta=0.50
     Davidson diagonalization with overlap
     ethr =  1.00E-02,  avg # of iterations = 10.0

     total cpu time spent up to now is        2.5 secs

     total energy              =      -0.88660930 Ry
     Harris-Foulkes estimate   =      -0.90548284 Ry
     estimated scf accuracy    <       0.14527185 Ry

     iteration #  2     ecut=    50.00 Ry     beta=0.50
     Davidson diagonalization with overlap
     ethr =  1.00E-02,  avg # of iterations =  1.0

     total cpu time spent up to now is        2.9 secs

     total energy              =      -0.88153424 Ry
     Harris-Foulkes estimate   =      -0.89081360 Ry
     estimated scf accuracy    <       0.02735166 Ry

     iteration #  3     ecut=    50.00 Ry     beta=0.50
     Davidson diagonalization with overlap
     ethr =  2.74E-03,  avg # of iterations =  2.0

     total cpu time spent up to now is        3.2 secs

     total energy              =      -0.88711942 Ry
     Harris-Foulkes estimate   =      -0.88755501 Ry
     estimated scf accuracy    <       0.00110401 Ry

     iteration #  4     ecut=    50.00 Ry     beta=0.50
     Davidson diagonalization with overlap
     ethr =  1.10E-04,  avg # of iterations =  1.0

     negative rho (up, down):  1.587E-04 0.000E+00

     total cpu time spent up to now is        3.5 secs

     total energy              =      -0.88732312 Ry
     Harris-Foulkes estimate   =      -0.88722277 Ry
     estimated scf accuracy    <       0.00006670 Ry

     iteration #  5     ecut=    50.00 Ry     beta=0.50
     Davidson diagonalization with overlap
     ethr =  6.67E-06,  avg # of iterations =  2.0

     negative rho (up, down):  1.119E-04 0.000E+00

     total cpu time spent up to now is        3.8 secs

     total energy              =      -0.88734425 Ry
     Harris-Foulkes estimate   =      -0.88735092 Ry
     estimated scf accuracy    <       0.00008267 Ry

     iteration #  6     ecut=    50.00 Ry     beta=0.50
     Davidson diagonalization with overlap
     ethr =  6.67E-06,  avg # of iterations =  1.0

     negative rho (up, down):  3.646E-07 0.000E+00

     total cpu time spent up to now is        4.1 secs

     total energy              =      -0.88732314 Ry
     Harris-Foulkes estimate   =      -0.88734446 Ry
     estimated scf accuracy    <       0.00006424 Ry

     iteration #  7     ecut=    50.00 Ry     beta=0.50
     Davidson diagonalization with overlap
     ethr =  6.42E-06,  avg # of iterations =  1.0

     total cpu time spent up to now is        4.5 secs

     total energy              =      -0.88732493 Ry
     Harris-Foulkes estimate   =      -0.88732587 Ry
     estimated scf accuracy    <       0.00000222 Ry

     iteration #  8     ecut=    50.00 Ry     beta=0.50
     Davidson diagonalization with overlap
     ethr =  2.22E-07,  avg # of iterations =  2.0

     total cpu time spent up to now is        4.7 secs

     End of self-consistent calculation

          k = 0.0000 0.0000 0.0000 ( 24405 PWs)   bands (ev):

    -6.3399

     highest occupied level (ev):    -6.3399

!    total energy              =      -0.88732542 Ry
     Harris-Foulkes estimate   =      -0.88732548 Ry
     estimated scf accuracy    <       0.00000031 Ry

     The total energy is the sum of the following terms:

     one-electron contribution =      -0.98673717 Ry
     hartree contribution      =       0.56211901 Ry
     xc contribution           =      -0.46270725 Ry
     ewald contribution        =      -0.00000000 Ry

     convergence has been achieved in   8 iterations

     Writing output data file pwscf.save

     init_run     :      0.75s CPU      1.29s WALL (       1 calls)
     electrons    :      2.76s CPU      3.10s WALL (       1 calls)

     Called by init_run:
     wfcinit      :      0.03s CPU      0.21s WALL (       1 calls)
     potinit      :      0.11s CPU      0.14s WALL (       1 calls)

     Called by electrons:
     c_bands      :      0.71s CPU      0.89s WALL (       8 calls)
     sum_band     :      0.57s CPU      0.57s WALL (       8 calls)
     v_of_rho     :      0.79s CPU      0.79s WALL (       9 calls)
     mix_rho      :      0.59s CPU      0.69s WALL (       8 calls)

     Called by c_bands:
     init_us_2    :      0.02s CPU      0.02s WALL (      17 calls)
     cegterg      :      0.71s CPU      0.88s WALL (       8 calls)

     Called by sum_band:

     Called by *egterg:
     h_psi        :      0.68s CPU      0.73s WALL (      29 calls)
     g_psi        :      0.01s CPU      0.01s WALL (      20 calls)
     cdiaghg      :      0.00s CPU      0.29s WALL (      28 calls)

     Called by h_psi:
     h_psi:pot    :      0.68s CPU      0.72s WALL (      29 calls)
     h_psi:calbec :      0.00s CPU      0.04s WALL (      29 calls)
     vloc_psi     :      0.68s CPU      0.67s WALL (      29 calls)
     add_vuspsi   :      0.00s CPU      0.00s WALL (      29 calls)

     General routines
     calbec       :      0.00s CPU      0.04s WALL (      29 calls)
     fft          :      0.48s CPU      0.78s WALL (      36 calls)
     fftw         :      0.63s CPU      0.63s WALL (      66 calls)

     Parallel routines
     fft_scatter  :      0.21s CPU      0.21s WALL (     102 calls)

     PWSCF        :     3.66s CPU         4.90s WALL


   This run was terminated on:   6:25:27   1Apr2017            

=------------------------------------------------------------------------------=
   JOB DONE.
=------------------------------------------------------------------------------=
