
     Program PWSCF v.6.1 (svn rev. 13369) starts on 22Mar2017 at 14:58:45 

     This program is part of the open-source Quantum ESPRESSO suite
     for quantum simulation of materials; please cite
         "P. Giannozzi et al., J. Phys.:Condens. Matter 21 395502 (2009);
          URL http://www.quantum-espresso.org", 
     in publications or presentations arising from this work. More details at
     http://www.quantum-espresso.org/quote

     Parallel version (MPI), running on     1 processors
     Waiting for input...
     Reading input from standard input

     Current dimensions of program PWSCF are:
     Max number of different atomic species (ntypx) = 10
     Max number of k-points (npk) =  40000
     Max angular momentum in pseudopotentials (lmaxx) =  3

     Subspace diagonalization in iterative solution of the eigenvalue problem:
     a serial algorithm will be used


     G-vector sticks info
     --------------------
     sticks:   dense  smooth     PW     G-vecs:    dense   smooth      PW
     Sum        4053    4053   1009               195269   195269   24405



     bravais-lattice index     =            0
     lattice parameter (alat)  =      16.0000  a.u.
     unit-cell volume          =    4096.0000 (a.u.)^3
     number of atoms/cell      =            1
     number of atomic types    =            1
     number of electrons       =         1.00
     number of Kohn-Sham states=            1
     kinetic-energy cutoff     =      50.0000  Ry
     charge density cutoff     =     200.0000  Ry
     convergence threshold     =      1.0E-06
     mixing beta               =       0.5000
     number of iterations used =            8  plain     mixing
     Exchange-correlation      = PBE ( 1  4  3  4 0 0)

     celldm(1)=  16.000000  celldm(2)=   0.000000  celldm(3)=   0.000000
     celldm(4)=   0.000000  celldm(5)=   0.000000  celldm(6)=   0.000000

     crystal axes: (cart. coord. in units of alat)
               a(1) = (   1.000000   0.000000   0.000000 )  
               a(2) = (   0.000000   1.000000   0.000000 )  
               a(3) = (   0.000000   0.000000   1.000000 )  

     reciprocal axes: (cart. coord. in units 2 pi/alat)
               b(1) = (  1.000000  0.000000  0.000000 )  
               b(2) = (  0.000000  1.000000  0.000000 )  
               b(3) = (  0.000000  0.000000  1.000000 )  


     PseudoPot. # 1 for  H read from file:
     ./H.1.PBE.gth
     MD5 check sum: 1bc203b4ccdc7556521da00b64edec72
     Pseudo is Norm-conserving, Zval =  1.0
     GTH norm-conserving PP, generated by Matthias Krack
     Using radial grid of  929 points,  1 beta functions with: 
                l(1) =   0

     atomic species   valence    mass     pseudopotential
        H              1.00     1.00000      H( 1.00)

     48 Sym. Ops., with inversion, found



   Cartesian axes

     site n.     atom                  positions (alat units)
         1           H   tau(   1) = (   0.0000000   0.0000000   0.0000000  )

     number of k points=     1
                       cart. coord. in units 2pi/alat
        k(    1) = (   0.0000000   0.0000000   0.0000000), wk =   2.0000000

     Dense  grid:   195269 G-vectors     FFT dimensions: (  75,  75,  75)

     Occupations read from input 

        1.0000

     Estimated max dynamical RAM per process >     109.42MB

     Initial potential from superposition of free atoms

     negative rho (up, down):  1.987E-08 0.000E+00
     Starting wfc are random

     total cpu time spent up to now is        0.6 secs

     per-process dynamical memory:    86.9 Mb

     Self-consistent Calculation

     iteration #  1     ecut=    50.00 Ry     beta=0.50
     Davidson diagonalization with overlap
     ethr =  1.00E-02,  avg # of iterations = 10.0

     total cpu time spent up to now is        1.3 secs

     total energy              =      -0.91458619 Ry
     Harris-Foulkes estimate   =      -0.93705516 Ry
     estimated scf accuracy    <       0.13186502 Ry

     iteration #  2     ecut=    50.00 Ry     beta=0.50
     Davidson diagonalization with overlap
     ethr =  1.00E-02,  avg # of iterations =  1.0

     total cpu time spent up to now is        1.8 secs

     total energy              =      -0.90773821 Ry
     Harris-Foulkes estimate   =      -0.91750956 Ry
     estimated scf accuracy    <       0.02494081 Ry

     iteration #  3     ecut=    50.00 Ry     beta=0.50
     Davidson diagonalization with overlap
     ethr =  2.49E-03,  avg # of iterations =  2.0

     total cpu time spent up to now is        2.3 secs

     total energy              =      -0.91326909 Ry
     Harris-Foulkes estimate   =      -0.91331407 Ry
     estimated scf accuracy    <       0.00108026 Ry

     iteration #  4     ecut=    50.00 Ry     beta=0.50
     Davidson diagonalization with overlap
     ethr =  1.08E-04,  avg # of iterations =  1.0

     negative rho (up, down):  1.823E-02 0.000E+00

     total cpu time spent up to now is        2.8 secs

     total energy              =      -0.91332063 Ry
     Harris-Foulkes estimate   =      -0.91329534 Ry
     estimated scf accuracy    <       0.00093346 Ry

     iteration #  5     ecut=    50.00 Ry     beta=0.50
     Davidson diagonalization with overlap
     ethr =  9.33E-05,  avg # of iterations =  2.0

     negative rho (up, down):  1.056E-03 0.000E+00

     total cpu time spent up to now is        3.4 secs

     total energy              =      -0.91282693 Ry
     Harris-Foulkes estimate   =      -0.91382419 Ry
     estimated scf accuracy    <       0.00143987 Ry

     iteration #  6     ecut=    50.00 Ry     beta=0.50
     Davidson diagonalization with overlap
     ethr =  9.33E-05,  avg # of iterations =  2.0

     negative rho (up, down):  3.112E-04 0.000E+00

     total cpu time spent up to now is        3.9 secs

     total energy              =      -0.91302047 Ry
     Harris-Foulkes estimate   =      -0.91301292 Ry
     estimated scf accuracy    <       0.00001917 Ry

     iteration #  7     ecut=    50.00 Ry     beta=0.50
     Davidson diagonalization with overlap
     ethr =  1.92E-06,  avg # of iterations =  1.0

     negative rho (up, down):  8.795E-04 0.000E+00

     total cpu time spent up to now is        4.5 secs

     total energy              =      -0.91301725 Ry
     Harris-Foulkes estimate   =      -0.91302165 Ry
     estimated scf accuracy    <       0.00001249 Ry

     iteration #  8     ecut=    50.00 Ry     beta=0.50
     Davidson diagonalization with overlap
     ethr =  1.25E-06,  avg # of iterations =  1.0

     negative rho (up, down):  8.175E-05 0.000E+00

     total cpu time spent up to now is        5.1 secs

     total energy              =      -0.91302583 Ry
     Harris-Foulkes estimate   =      -0.91301782 Ry
     estimated scf accuracy    <       0.00002835 Ry

     iteration #  9     ecut=    50.00 Ry     beta=0.50
     Davidson diagonalization with overlap
     ethr =  1.25E-06,  avg # of iterations =  1.0

     total cpu time spent up to now is        5.7 secs

     total energy              =      -0.91303282 Ry
     Harris-Foulkes estimate   =      -0.91302666 Ry
     estimated scf accuracy    <       0.00000536 Ry

     iteration # 10     ecut=    50.00 Ry     beta=0.50
     Davidson diagonalization with overlap
     ethr =  5.36E-07,  avg # of iterations =  2.0

     total cpu time spent up to now is        6.2 secs

     End of self-consistent calculation

          k = 0.0000 0.0000 0.0000 ( 24405 PWs)   bands (ev):

    -6.4089

     highest occupied level (ev):    -6.4089

!    total energy              =      -0.91303404 Ry
     Harris-Foulkes estimate   =      -0.91303421 Ry
     estimated scf accuracy    <       0.00000048 Ry

     The total energy is the sum of the following terms:

     one-electron contribution =      -0.63867341 Ry
     hartree contribution      =       0.40230867 Ry
     xc contribution           =      -0.49933820 Ry
     ewald contribution        =      -0.17733110 Ry

     convergence has been achieved in  10 iterations

     Writing output data file pwscf.save

     init_run     :      0.45s CPU      0.54s WALL (       1 calls)
     electrons    :      5.50s CPU      5.64s WALL (       1 calls)

     Called by init_run:
     wfcinit      :      0.03s CPU      0.03s WALL (       1 calls)
     potinit      :      0.24s CPU      0.31s WALL (       1 calls)

     Called by electrons:
     c_bands      :      0.76s CPU      0.77s WALL (      10 calls)
     sum_band     :      0.74s CPU      0.75s WALL (      10 calls)
     v_of_rho     :      3.15s CPU      3.22s WALL (      11 calls)
     mix_rho      :      0.92s CPU      1.00s WALL (      10 calls)

     Called by c_bands:
     init_us_2    :      0.02s CPU      0.02s WALL (      21 calls)
     cegterg      :      0.74s CPU      0.76s WALL (      10 calls)

     Called by sum_band:

     Called by *egterg:
     h_psi        :      0.72s CPU      0.74s WALL (      34 calls)
     g_psi        :      0.02s CPU      0.01s WALL (      23 calls)
     cdiaghg      :      0.00s CPU      0.00s WALL (      33 calls)

     Called by h_psi:
     h_psi:pot    :      0.72s CPU      0.73s WALL (      34 calls)
     h_psi:calbec :      0.01s CPU      0.01s WALL (      34 calls)
     vloc_psi     :      0.71s CPU      0.72s WALL (      34 calls)
     add_vuspsi   :      0.00s CPU      0.00s WALL (      34 calls)

     General routines
     calbec       :      0.01s CPU      0.01s WALL (      34 calls)
     fft          :      1.48s CPU      1.52s WALL (     120 calls)
     fftw         :      0.70s CPU      0.68s WALL (      78 calls)

     Parallel routines
     fft_scatter  :      0.46s CPU      0.49s WALL (     198 calls)

     PWSCF        :     6.08s CPU         6.31s WALL


   This run was terminated on:  14:58:51  22Mar2017            

=------------------------------------------------------------------------------=
   JOB DONE.
=------------------------------------------------------------------------------=
