
     Program PWSCF v.6.1 (svn rev. 13369) starts on 19Apr2017 at 16: 9: 6 

     This program is part of the open-source Quantum ESPRESSO suite
     for quantum simulation of materials; please cite
         "P. Giannozzi et al., J. Phys.:Condens. Matter 21 395502 (2009);
          URL http://www.quantum-espresso.org", 
     in publications or presentations arising from this work. More details at
     http://www.quantum-espresso.org/quote

     Parallel version (MPI), running on     1 processors
     Waiting for input...
     Reading input from standard input
Warning: card  2.0  1.0 ignored

     Current dimensions of program PWSCF are:
     Max number of different atomic species (ntypx) = 10
     Max number of k-points (npk) =  40000
     Max angular momentum in pseudopotentials (lmaxx) =  3
 rloc=   0.4000000
 cc(1:4)= -14.0348680   9.5534760  -1.7664880   0.0843700
 rloc=   0.2000000
 cc(1:4)=  -4.1802370   0.7250750   0.0000000   0.0000000

     Subspace diagonalization in iterative solution of the eigenvalue problem:
     a serial algorithm will be used


     G-vector sticks info
     --------------------
     sticks:   dense  smooth     PW     G-vecs:    dense   smooth      PW
     Sum        8121    8121   2029               552629   552629   68999



     bravais-lattice index     =            0
     lattice parameter (alat)  =      16.0000  a.u.
     unit-cell volume          =    4096.0000 (a.u.)^3
     number of atoms/cell      =            2
     number of atomic types    =            2
     number of electrons       =         4.00
     number of Kohn-Sham states=            2
     kinetic-energy cutoff     =     100.0000  Ry
     charge density cutoff     =     400.0000  Ry
     convergence threshold     =      1.0E-06
     mixing beta               =       0.5000
     number of iterations used =            8  plain     mixing
     Exchange-correlation      = PZ ( 1  1  0  0 0 0)

     celldm(1)=  16.000000  celldm(2)=   0.000000  celldm(3)=   0.000000
     celldm(4)=   0.000000  celldm(5)=   0.000000  celldm(6)=   0.000000

     crystal axes: (cart. coord. in units of alat)
               a(1) = (   1.000000   0.000000   0.000000 )  
               a(2) = (   0.000000   1.000000   0.000000 )  
               a(3) = (   0.000000   0.000000   1.000000 )  

     reciprocal axes: (cart. coord. in units 2 pi/alat)
               b(1) = (  1.000000  0.000000  0.000000 )  
               b(2) = (  0.000000  1.000000  0.000000 )  
               b(3) = (  0.000000  0.000000  1.000000 )  


     PseudoPot. # 1 for Li read from file:
     ./Li.3.LDA.gth
     MD5 check sum: 89d311e85a80a94925fb2cc8ad099207
     Pseudo is Norm-conserving, Zval =  3.0
     GTH norm-conserving PP, generated by Matthias Krack
     Using radial grid of 1017 points,  1 beta functions with: 
                l(1) =   0

     PseudoPot. # 2 for  H read from file:
     ./H.1.LDA.gth
     MD5 check sum: 84e4bc3408560b7da5b84c14df2f01d1
     Pseudo is Norm-conserving, Zval =  1.0
     GTH norm-conserving PP, generated by Matthias Krack
     Using radial grid of  929 points,  1 beta functions with: 
                l(1) =   0

     atomic species   valence    mass     pseudopotential
        Li             3.00     3.00000     Li( 1.00)
        H              1.00     1.00000      H( 1.00)

      8 Sym. Ops. (no inversion) found



   Cartesian axes

     site n.     atom                  positions (alat units)
         1           H   tau(   1) = (   0.4114191   0.5000000   0.5000000  )
         2           Li  tau(   2) = (   0.5885809   0.5000000   0.5000000  )

     number of k points=     1
                       cart. coord. in units 2pi/alat
        k(    1) = (   0.0000000   0.0000000   0.0000000), wk =   2.0000000

     Dense  grid:   552629 G-vectors     FFT dimensions: ( 108, 108, 108)

     Estimated max dynamical RAM per process >     328.95MB

     Initial potential from superposition of free atoms

     negative rho (up, down):  1.478E-06 0.000E+00
     Starting wfc are random

 nt, nb, sum(vq) =     1    1      0.0000000000

 nt, nb, sum(vq) =     2    1      0.0000000000

     total cpu time spent up to now is        1.2 secs

     per-process dynamical memory:   231.0 Mb

     Self-consistent Calculation

     iteration #  1     ecut=   100.00 Ry     beta=0.50
     Davidson diagonalization with overlap

 nt, nb, sum(vq) =     1    1      0.0000000000

 nt, nb, sum(vq) =     2    1      0.0000000000
     ethr =  1.00E-02,  avg # of iterations = 10.0

 nt, nb, sum(vq) =     1    1      0.0000000000

 nt, nb, sum(vq) =     2    1      0.0000000000

     total cpu time spent up to now is        3.4 secs

     total energy              =     -15.62350939 Ry
     Harris-Foulkes estimate   =     -17.89031441 Ry
     estimated scf accuracy    <       3.89636579 Ry

     iteration #  2     ecut=   100.00 Ry     beta=0.50
     Davidson diagonalization with overlap

 nt, nb, sum(vq) =     1    1      0.0000000000

 nt, nb, sum(vq) =     2    1      0.0000000000
     ethr =  1.00E-02,  avg # of iterations =  2.0

 nt, nb, sum(vq) =     1    1      0.0000000000

 nt, nb, sum(vq) =     2    1      0.0000000000

     total cpu time spent up to now is        4.5 secs

     total energy              =     -15.64678818 Ry
     Harris-Foulkes estimate   =     -15.93754592 Ry
     estimated scf accuracy    <       0.40900761 Ry

     iteration #  3     ecut=   100.00 Ry     beta=0.50
     Davidson diagonalization with overlap

 nt, nb, sum(vq) =     1    1      0.0000000000

 nt, nb, sum(vq) =     2    1      0.0000000000
     ethr =  1.00E-02,  avg # of iterations =  2.0

 nt, nb, sum(vq) =     1    1      0.0000000000

 nt, nb, sum(vq) =     2    1      0.0000000000

     total cpu time spent up to now is        5.6 secs

     total energy              =     -15.69008389 Ry
     Harris-Foulkes estimate   =     -15.69320786 Ry
     estimated scf accuracy    <       0.01043080 Ry

     iteration #  4     ecut=   100.00 Ry     beta=0.50
     Davidson diagonalization with overlap

 nt, nb, sum(vq) =     1    1      0.0000000000

 nt, nb, sum(vq) =     2    1      0.0000000000
     ethr =  2.61E-04,  avg # of iterations =  2.0

 nt, nb, sum(vq) =     1    1      0.0000000000

 nt, nb, sum(vq) =     2    1      0.0000000000

     total cpu time spent up to now is        6.7 secs

     total energy              =     -15.69249423 Ry
     Harris-Foulkes estimate   =     -15.69254157 Ry
     estimated scf accuracy    <       0.00121099 Ry

     iteration #  5     ecut=   100.00 Ry     beta=0.50
     Davidson diagonalization with overlap

 nt, nb, sum(vq) =     1    1      0.0000000000

 nt, nb, sum(vq) =     2    1      0.0000000000
     ethr =  3.03E-05,  avg # of iterations =  2.0

 nt, nb, sum(vq) =     1    1      0.0000000000

 nt, nb, sum(vq) =     2    1      0.0000000000

     total cpu time spent up to now is        7.9 secs

     total energy              =     -15.69264674 Ry
     Harris-Foulkes estimate   =     -15.69263644 Ry
     estimated scf accuracy    <       0.00003767 Ry

     iteration #  6     ecut=   100.00 Ry     beta=0.50
     Davidson diagonalization with overlap

 nt, nb, sum(vq) =     1    1      0.0000000000

 nt, nb, sum(vq) =     2    1      0.0000000000
     ethr =  9.42E-07,  avg # of iterations =  3.0

 nt, nb, sum(vq) =     1    1      0.0000000000

 nt, nb, sum(vq) =     2    1      0.0000000000

     total cpu time spent up to now is        9.1 secs

     total energy              =     -15.69266702 Ry
     Harris-Foulkes estimate   =     -15.69265878 Ry
     estimated scf accuracy    <       0.00001737 Ry

     iteration #  7     ecut=   100.00 Ry     beta=0.50
     Davidson diagonalization with overlap

 nt, nb, sum(vq) =     1    1      0.0000000000

 nt, nb, sum(vq) =     2    1      0.0000000000
     ethr =  4.34E-07,  avg # of iterations =  2.0

 nt, nb, sum(vq) =     1    1      0.0000000000

 nt, nb, sum(vq) =     2    1      0.0000000000

     total cpu time spent up to now is       10.0 secs

     End of self-consistent calculation

          k = 0.0000 0.0000 0.0000 ( 68999 PWs)   bands (ev):

   -49.6068  -4.3802

     highest occupied level (ev):    -4.3802

!    total energy              =     -15.69266953 Ry
     Harris-Foulkes estimate   =     -15.69266865 Ry
     estimated scf accuracy    <       0.00000091 Ry

     The total energy is the sum of the following terms:

     one-electron contribution =     -19.29991853 Ry
     hartree contribution      =       8.31492962 Ry
     xc contribution           =      -4.01289879 Ry
     ewald contribution        =      -0.69478183 Ry

     convergence has been achieved in   7 iterations

     Writing output data file pwscf.save

     init_run     :      1.13s CPU      1.18s WALL (       1 calls)
     electrons    :      8.78s CPU      8.87s WALL (       1 calls)

     Called by init_run:
     wfcinit      :      0.16s CPU      0.16s WALL (       1 calls)
     potinit      :      0.48s CPU      0.52s WALL (       1 calls)

     Called by electrons:
     c_bands      :      3.76s CPU      3.79s WALL (       7 calls)
     sum_band     :      1.66s CPU      1.65s WALL (       7 calls)
     v_of_rho     :      1.99s CPU      2.01s WALL (       8 calls)
     mix_rho      :      1.34s CPU      1.40s WALL (       7 calls)

     Called by c_bands:
     init_us_2    :      0.08s CPU      0.09s WALL (      15 calls)
     cegterg      :      3.72s CPU      3.74s WALL (       7 calls)

     Called by sum_band:

     Called by *egterg:
     h_psi        :      3.58s CPU      3.59s WALL (      31 calls)
     g_psi        :      0.04s CPU      0.04s WALL (      23 calls)
     cdiaghg      :      0.00s CPU      0.00s WALL (      30 calls)

     Called by h_psi:
     h_psi:pot    :      3.55s CPU      3.56s WALL (      31 calls)
     h_psi:calbec :      0.02s CPU      0.02s WALL (      31 calls)
     vloc_psi     :      3.50s CPU      3.51s WALL (      31 calls)
     add_vuspsi   :      0.02s CPU      0.02s WALL (      31 calls)

     General routines
     calbec       :      0.02s CPU      0.02s WALL (      31 calls)
     fft          :      1.18s CPU      1.20s WALL (      31 calls)
     fftw         :      3.30s CPU      3.30s WALL (     122 calls)

     Parallel routines
     fft_scatter  :      0.78s CPU      0.77s WALL (     153 calls)

     PWSCF        :    10.09s CPU        10.28s WALL


   This run was terminated on:  16: 9:16  19Apr2017            

=------------------------------------------------------------------------------=
   JOB DONE.
=------------------------------------------------------------------------------=
