
     Program PWSCF v.6.1 (svn rev. 13369) starts on 26Apr2017 at 18:46:43 

     This program is part of the open-source Quantum ESPRESSO suite
     for quantum simulation of materials; please cite
         "P. Giannozzi et al., J. Phys.:Condens. Matter 21 395502 (2009);
          URL http://www.quantum-espresso.org", 
     in publications or presentations arising from this work. More details at
     http://www.quantum-espresso.org/quote

     Parallel version (MPI), running on     1 processors
     Waiting for input...
     Reading input from standard input

     Current dimensions of program PWSCF are:
     Max number of different atomic species (ntypx) = 10
     Max number of k-points (npk) =  40000
     Max angular momentum in pseudopotentials (lmaxx) =  3
 rloc=   0.4000000
 cc(1:4)= -14.0348680   9.5534760  -1.7664880   0.0843700
 rloc=   0.2000000
 cc(1:4)=  -4.1802370   0.7250750   0.0000000   0.0000000

     Subspace diagonalization in iterative solution of the eigenvalue problem:
     a serial algorithm will be used


     G-vector sticks info
     --------------------
     sticks:   dense  smooth     PW     G-vecs:    dense   smooth      PW
     Sum       14673   14673   3673              1336273  1336273  167037



     bravais-lattice index     =            0
     lattice parameter (alat)  =      16.0000  a.u.
     unit-cell volume          =    4096.0000 (a.u.)^3
     number of atoms/cell      =            2
     number of atomic types    =            2
     number of electrons       =         4.00
     number of Kohn-Sham states=            2
     kinetic-energy cutoff     =     180.0000  Ry
     charge density cutoff     =     720.0000  Ry
     convergence threshold     =      1.0E-06
     mixing beta               =       0.5000
     number of iterations used =            8  plain     mixing
     Exchange-correlation      = PZ ( 1  1  0  0 0 0)

     celldm(1)=  16.000000  celldm(2)=   0.000000  celldm(3)=   0.000000
     celldm(4)=   0.000000  celldm(5)=   0.000000  celldm(6)=   0.000000

     crystal axes: (cart. coord. in units of alat)
               a(1) = (   1.000000   0.000000   0.000000 )  
               a(2) = (   0.000000   1.000000   0.000000 )  
               a(3) = (   0.000000   0.000000   1.000000 )  

     reciprocal axes: (cart. coord. in units 2 pi/alat)
               b(1) = (  1.000000  0.000000  0.000000 )  
               b(2) = (  0.000000  1.000000  0.000000 )  
               b(3) = (  0.000000  0.000000  1.000000 )  


     PseudoPot. # 1 for Li read from file:
     ./Li.3.LDA.gth
     MD5 check sum: 89d311e85a80a94925fb2cc8ad099207
     Pseudo is Norm-conserving, Zval =  3.0
     GTH norm-conserving PP, generated by Matthias Krack
     Using radial grid of 1017 points,  1 beta functions with: 
                l(1) =   0

     PseudoPot. # 2 for  H read from file:
     ./H.1.LDA.gth
     MD5 check sum: 84e4bc3408560b7da5b84c14df2f01d1
     Pseudo is Norm-conserving, Zval =  1.0
     GTH norm-conserving PP, generated by Matthias Krack
     Using radial grid of  929 points,  1 beta functions with: 
                l(1) =   0

     atomic species   valence    mass     pseudopotential
        Li             3.00     3.00000     Li( 1.00)
        H              1.00     1.00000      H( 1.00)

      8 Sym. Ops. (no inversion) found



   Cartesian axes

     site n.     atom                  positions (alat units)
         1           H   tau(   1) = (   0.4114191   0.5000000   0.5000000  )
         2           Li  tau(   2) = (   0.5885809   0.5000000   0.5000000  )

     number of k points=     1
                       cart. coord. in units 2pi/alat
        k(    1) = (   0.0000000   0.0000000   0.0000000), wk =   2.0000000

     Dense  grid:  1336273 G-vectors     FFT dimensions: ( 144, 144, 144)

     Estimated max dynamical RAM per process >     791.24MB

     Initial potential from superposition of free atoms

     negative rho (up, down):  5.218E-08 0.000E+00
     Starting wfc are random

 nt, nb, sum(vq) =     1    1      0.0000000000

 nt, nb, sum(vq) =     2    1      0.0000000000

     total cpu time spent up to now is        2.5 secs

     per-process dynamical memory:   522.6 Mb

     Self-consistent Calculation

     iteration #  1     ecut=   180.00 Ry     beta=0.50
     Davidson diagonalization with overlap

 nt, nb, sum(vq) =     1    1      0.0000000000

 nt, nb, sum(vq) =     2    1      0.0000000000
     ethr =  1.00E-02,  avg # of iterations = 10.0

 nt, nb, sum(vq) =     1    1      0.0000000000

 nt, nb, sum(vq) =     2    1      0.0000000000

     total cpu time spent up to now is        7.5 secs

     total energy              =     -15.69276080 Ry
     Harris-Foulkes estimate   =     -17.92192168 Ry
     estimated scf accuracy    <       3.83473824 Ry

     iteration #  2     ecut=   180.00 Ry     beta=0.50
     Davidson diagonalization with overlap

 nt, nb, sum(vq) =     1    1      0.0000000000

 nt, nb, sum(vq) =     2    1      0.0000000000
     ethr =  1.00E-02,  avg # of iterations =  2.0

 nt, nb, sum(vq) =     1    1      0.0000000000

 nt, nb, sum(vq) =     2    1      0.0000000000

     total cpu time spent up to now is       10.1 secs

     total energy              =     -15.70800840 Ry
     Harris-Foulkes estimate   =     -15.99720352 Ry
     estimated scf accuracy    <       0.40742719 Ry

     iteration #  3     ecut=   180.00 Ry     beta=0.50
     Davidson diagonalization with overlap

 nt, nb, sum(vq) =     1    1      0.0000000000

 nt, nb, sum(vq) =     2    1      0.0000000000
     ethr =  1.00E-02,  avg # of iterations =  2.0

 nt, nb, sum(vq) =     1    1      0.0000000000

 nt, nb, sum(vq) =     2    1      0.0000000000

     total cpu time spent up to now is       12.7 secs

     total energy              =     -15.75134043 Ry
     Harris-Foulkes estimate   =     -15.75441111 Ry
     estimated scf accuracy    <       0.01071822 Ry

     iteration #  4     ecut=   180.00 Ry     beta=0.50
     Davidson diagonalization with overlap

 nt, nb, sum(vq) =     1    1      0.0000000000

 nt, nb, sum(vq) =     2    1      0.0000000000
     ethr =  2.68E-04,  avg # of iterations =  2.0

 nt, nb, sum(vq) =     1    1      0.0000000000

 nt, nb, sum(vq) =     2    1      0.0000000000

     total cpu time spent up to now is       15.3 secs

     total energy              =     -15.75370823 Ry
     Harris-Foulkes estimate   =     -15.75376284 Ry
     estimated scf accuracy    <       0.00121294 Ry

     iteration #  5     ecut=   180.00 Ry     beta=0.50
     Davidson diagonalization with overlap

 nt, nb, sum(vq) =     1    1      0.0000000000

 nt, nb, sum(vq) =     2    1      0.0000000000
     ethr =  3.03E-05,  avg # of iterations =  2.0

 nt, nb, sum(vq) =     1    1      0.0000000000

 nt, nb, sum(vq) =     2    1      0.0000000000

     total cpu time spent up to now is       18.0 secs

     total energy              =     -15.75385895 Ry
     Harris-Foulkes estimate   =     -15.75384672 Ry
     estimated scf accuracy    <       0.00003591 Ry

     iteration #  6     ecut=   180.00 Ry     beta=0.50
     Davidson diagonalization with overlap

 nt, nb, sum(vq) =     1    1      0.0000000000

 nt, nb, sum(vq) =     2    1      0.0000000000
     ethr =  8.98E-07,  avg # of iterations =  3.0

 nt, nb, sum(vq) =     1    1      0.0000000000

 nt, nb, sum(vq) =     2    1      0.0000000000

     total cpu time spent up to now is       21.0 secs

     total energy              =     -15.75387825 Ry
     Harris-Foulkes estimate   =     -15.75387058 Ry
     estimated scf accuracy    <       0.00001598 Ry

     iteration #  7     ecut=   180.00 Ry     beta=0.50
     Davidson diagonalization with overlap

 nt, nb, sum(vq) =     1    1      0.0000000000

 nt, nb, sum(vq) =     2    1      0.0000000000
     ethr =  4.00E-07,  avg # of iterations =  2.0

 nt, nb, sum(vq) =     1    1      0.0000000000

 nt, nb, sum(vq) =     2    1      0.0000000000

     total cpu time spent up to now is       23.1 secs

     End of self-consistent calculation

          k = 0.0000 0.0000 0.0000 (167037 PWs)   bands (ev):

   -49.7693  -4.3879

     highest occupied level (ev):    -4.3879

!    total energy              =     -15.75388061 Ry
     Harris-Foulkes estimate   =     -15.75387972 Ry
     estimated scf accuracy    <       0.00000090 Ry

     The total energy is the sum of the following terms:

     one-electron contribution =     -19.38474273 Ry
     hartree contribution      =       8.35714223 Ry
     xc contribution           =      -4.03149829 Ry
     ewald contribution        =      -0.69478183 Ry

     convergence has been achieved in   7 iterations

     Writing output data file pwscf.save

     init_run     :      2.29s CPU      2.41s WALL (       1 calls)
     electrons    :     20.61s CPU     20.76s WALL (       1 calls)

     Called by init_run:
     wfcinit      :      0.37s CPU      0.38s WALL (       1 calls)
     potinit      :      0.71s CPU      0.76s WALL (       1 calls)

     Called by electrons:
     c_bands      :      8.63s CPU      8.70s WALL (       7 calls)
     sum_band     :      3.95s CPU      3.95s WALL (       7 calls)
     v_of_rho     :      4.36s CPU      4.39s WALL (       8 calls)
     mix_rho      :      3.23s CPU      3.29s WALL (       7 calls)

     Called by c_bands:
     init_us_2    :      0.20s CPU      0.21s WALL (      15 calls)
     cegterg      :      8.51s CPU      8.57s WALL (       7 calls)

     Called by sum_band:

     Called by *egterg:
     h_psi        :      8.17s CPU      8.22s WALL (      31 calls)
     g_psi        :      0.09s CPU      0.10s WALL (      23 calls)
     cdiaghg      :      0.00s CPU      0.00s WALL (      30 calls)

     Called by h_psi:
     h_psi:pot    :      8.10s CPU      8.14s WALL (      31 calls)
     h_psi:calbec :      0.04s CPU      0.05s WALL (      31 calls)
     vloc_psi     :      7.98s CPU      8.03s WALL (      31 calls)
     add_vuspsi   :      0.07s CPU      0.06s WALL (      31 calls)

     General routines
     calbec       :      0.04s CPU      0.05s WALL (      31 calls)
     fft          :      2.76s CPU      2.79s WALL (      31 calls)
     fftw         :      7.46s CPU      7.51s WALL (     122 calls)

     Parallel routines
     fft_scatter  :      2.00s CPU      2.05s WALL (     153 calls)

     PWSCF        :    23.30s CPU        23.62s WALL


   This run was terminated on:  18:47: 6  26Apr2017            

=------------------------------------------------------------------------------=
   JOB DONE.
=------------------------------------------------------------------------------=
