
     Program PWSCF v.6.1 (svn rev. 13369) starts on  2May2017 at 21:49:40 

     This program is part of the open-source Quantum ESPRESSO suite
     for quantum simulation of materials; please cite
         "P. Giannozzi et al., J. Phys.:Condens. Matter 21 395502 (2009);
          URL http://www.quantum-espresso.org", 
     in publications or presentations arising from this work. More details at
     http://www.quantum-espresso.org/quote

     Parallel version (MPI), running on     1 processors
     Waiting for input...
     Reading input from standard input

     Current dimensions of program PWSCF are:
     Max number of different atomic species (ntypx) = 10
     Max number of k-points (npk) =  40000
     Max angular momentum in pseudopotentials (lmaxx) =  3
 rloc=   0.5600000
 cc(1:0)=

     Subspace diagonalization in iterative solution of the eigenvalue problem:
     a serial algorithm will be used


     G-vector sticks info
     --------------------
     sticks:   dense  smooth     PW     G-vecs:    dense   smooth      PW
     Sum        4053    4053   1009               195269   195269   24405



     bravais-lattice index     =            0
     lattice parameter (alat)  =      16.0000  a.u.
     unit-cell volume          =    4096.0000 (a.u.)^3
     number of atoms/cell      =            1
     number of atomic types    =            1
     number of electrons       =        10.00
     number of Kohn-Sham states=            5
     kinetic-energy cutoff     =      50.0000  Ry
     charge density cutoff     =     200.0000  Ry
     convergence threshold     =      1.0E-06
     mixing beta               =       0.5000
     number of iterations used =            8  plain     mixing
     Exchange-correlation      = PZ ( 1  1  0  0 0 0)

     celldm(1)=  16.000000  celldm(2)=   0.000000  celldm(3)=   0.000000
     celldm(4)=   0.000000  celldm(5)=   0.000000  celldm(6)=   0.000000

     crystal axes: (cart. coord. in units of alat)
               a(1) = (   1.000000   0.000000   0.000000 )  
               a(2) = (   0.000000   1.000000   0.000000 )  
               a(3) = (   0.000000   0.000000   1.000000 )  

     reciprocal axes: (cart. coord. in units 2 pi/alat)
               b(1) = (  1.000000  0.000000  0.000000 )  
               b(2) = (  0.000000  1.000000  0.000000 )  
               b(3) = (  0.000000  0.000000  1.000000 )  


     PseudoPot. # 1 for Ni read from file:
     ./Ni.10.LDA.gth
     MD5 check sum: ea13b5a574d6e4cffacdbab329dc7025
     Pseudo is Norm-conserving, Zval = 10.0
     GTH norm-conserving PP, generated by Matthias Krack
     Using radial grid of 1195 points,  5 beta functions with: 
                l(1) =   0
                l(2) =   1
                l(3) =   1
                l(4) =   1
                l(5) =   2

     atomic species   valence    mass     pseudopotential
        Ni            10.00     1.00000     Ni( 1.00)

     48 Sym. Ops., with inversion, found



   Cartesian axes

     site n.     atom                  positions (alat units)
         1           Ni  tau(   1) = (   0.0000000   0.0000000   0.0000000  )

     number of k points=     1
                       cart. coord. in units 2pi/alat
        k(    1) = (   0.0000000   0.0000000   0.0000000), wk =   2.0000000

     Dense  grid:   195269 G-vectors     FFT dimensions: (  75,  75,  75)

     Estimated max dynamical RAM per process >     122.12MB

     Initial potential from superposition of free atoms
     Starting wfc are random

 nt, nb, sum(vq) =     1    1      0.0000000000

 nt, nb, sum(vq) =     1    2    848.6035606494

 nt, nb, sum(vq) =     1    3    422.8595371006

 nt, nb, sum(vq) =     1    4    144.6816716408

 nt, nb, sum(vq) =     1    5    874.4906781254

     total cpu time spent up to now is        0.5 secs

     per-process dynamical memory:    89.4 Mb

     Self-consistent Calculation

     iteration #  1     ecut=    50.00 Ry     beta=0.50
     Davidson diagonalization with overlap

 nt, nb, sum(vq) =     1    1      0.0000000000

 nt, nb, sum(vq) =     1    2    848.6035606494

 nt, nb, sum(vq) =     1    3    422.8595371006

 nt, nb, sum(vq) =     1    4    144.6816716408

 nt, nb, sum(vq) =     1    5    874.4906781254
     ethr =  1.00E-02,  avg # of iterations =  7.0

 nt, nb, sum(vq) =     1    1      0.0000000000

 nt, nb, sum(vq) =     1    2    848.6035606494

 nt, nb, sum(vq) =     1    3    422.8595371006

 nt, nb, sum(vq) =     1    4    144.6816716408

 nt, nb, sum(vq) =     1    5    874.4906781254

     total cpu time spent up to now is        1.6 secs

     total energy              =     -54.03143526 Ry
     Harris-Foulkes estimate   =     -79.65760318 Ry
     estimated scf accuracy    <      38.37249068 Ry

     iteration #  2     ecut=    50.00 Ry     beta=0.50
     Davidson diagonalization with overlap

 nt, nb, sum(vq) =     1    1      0.0000000000

 nt, nb, sum(vq) =     1    2    848.6035606494

 nt, nb, sum(vq) =     1    3    422.8595371006

 nt, nb, sum(vq) =     1    4    144.6816716408

 nt, nb, sum(vq) =     1    5    874.4906781254
     ethr =  1.00E-02,  avg # of iterations =  8.0

 nt, nb, sum(vq) =     1    1      0.0000000000

 nt, nb, sum(vq) =     1    2    848.6035606494

 nt, nb, sum(vq) =     1    3    422.8595371006

 nt, nb, sum(vq) =     1    4    144.6816716408

 nt, nb, sum(vq) =     1    5    874.4906781254

     total cpu time spent up to now is        2.7 secs

     total energy              =     -70.88489885 Ry
     Harris-Foulkes estimate   =     -73.39612903 Ry
     estimated scf accuracy    <       5.15599976 Ry

     iteration #  3     ecut=    50.00 Ry     beta=0.50
     Davidson diagonalization with overlap

 nt, nb, sum(vq) =     1    1      0.0000000000

 nt, nb, sum(vq) =     1    2    848.6035606494

 nt, nb, sum(vq) =     1    3    422.8595371006

 nt, nb, sum(vq) =     1    4    144.6816716408

 nt, nb, sum(vq) =     1    5    874.4906781254
     ethr =  1.00E-02,  avg # of iterations =  2.0

 nt, nb, sum(vq) =     1    1      0.0000000000

 nt, nb, sum(vq) =     1    2    848.6035606494

 nt, nb, sum(vq) =     1    3    422.8595371006

 nt, nb, sum(vq) =     1    4    144.6816716408

 nt, nb, sum(vq) =     1    5    874.4906781254

     total cpu time spent up to now is        3.4 secs

     total energy              =     -70.23246418 Ry
     Harris-Foulkes estimate   =     -71.12014600 Ry
     estimated scf accuracy    <       1.32651119 Ry

     iteration #  4     ecut=    50.00 Ry     beta=0.50
     Davidson diagonalization with overlap

 nt, nb, sum(vq) =     1    1      0.0000000000

 nt, nb, sum(vq) =     1    2    848.6035606494

 nt, nb, sum(vq) =     1    3    422.8595371006

 nt, nb, sum(vq) =     1    4    144.6816716408

 nt, nb, sum(vq) =     1    5    874.4906781254
     ethr =  1.00E-02,  avg # of iterations =  2.0

 nt, nb, sum(vq) =     1    1      0.0000000000

 nt, nb, sum(vq) =     1    2    848.6035606494

 nt, nb, sum(vq) =     1    3    422.8595371006

 nt, nb, sum(vq) =     1    4    144.6816716408

 nt, nb, sum(vq) =     1    5    874.4906781254

     total cpu time spent up to now is        4.0 secs

     total energy              =     -70.42759211 Ry
     Harris-Foulkes estimate   =     -70.44053950 Ry
     estimated scf accuracy    <       0.05688899 Ry

     iteration #  5     ecut=    50.00 Ry     beta=0.50
     Davidson diagonalization with overlap

 nt, nb, sum(vq) =     1    1      0.0000000000

 nt, nb, sum(vq) =     1    2    848.6035606494

 nt, nb, sum(vq) =     1    3    422.8595371006

 nt, nb, sum(vq) =     1    4    144.6816716408

 nt, nb, sum(vq) =     1    5    874.4906781254
     ethr =  5.69E-04,  avg # of iterations = 10.0

 nt, nb, sum(vq) =     1    1      0.0000000000

 nt, nb, sum(vq) =     1    2    848.6035606494

 nt, nb, sum(vq) =     1    3    422.8595371006

 nt, nb, sum(vq) =     1    4    144.6816716408

 nt, nb, sum(vq) =     1    5    874.4906781254

     total cpu time spent up to now is        5.0 secs

     total energy              =     -73.00350269 Ry
     Harris-Foulkes estimate   =     -73.24622583 Ry
     estimated scf accuracy    <       5.36202990 Ry

     iteration #  6     ecut=    50.00 Ry     beta=0.50
     Davidson diagonalization with overlap

 nt, nb, sum(vq) =     1    1      0.0000000000

 nt, nb, sum(vq) =     1    2    848.6035606494

 nt, nb, sum(vq) =     1    3    422.8595371006

 nt, nb, sum(vq) =     1    4    144.6816716408

 nt, nb, sum(vq) =     1    5    874.4906781254
     ethr =  5.69E-04,  avg # of iterations =  1.0

 nt, nb, sum(vq) =     1    1      0.0000000000

 nt, nb, sum(vq) =     1    2    848.6035606494

 nt, nb, sum(vq) =     1    3    422.8595371006

 nt, nb, sum(vq) =     1    4    144.6816716408

 nt, nb, sum(vq) =     1    5    874.4906781254

     total cpu time spent up to now is        5.6 secs

     total energy              =     -72.11738315 Ry
     Harris-Foulkes estimate   =     -73.00744414 Ry
     estimated scf accuracy    <       4.76208559 Ry

     iteration #  7     ecut=    50.00 Ry     beta=0.50
     Davidson diagonalization with overlap

 nt, nb, sum(vq) =     1    1      0.0000000000

 nt, nb, sum(vq) =     1    2    848.6035606494

 nt, nb, sum(vq) =     1    3    422.8595371006

 nt, nb, sum(vq) =     1    4    144.6816716408

 nt, nb, sum(vq) =     1    5    874.4906781254
     ethr =  5.69E-04,  avg # of iterations =  2.0

 nt, nb, sum(vq) =     1    1      0.0000000000

 nt, nb, sum(vq) =     1    2    848.6035606494

 nt, nb, sum(vq) =     1    3    422.8595371006

 nt, nb, sum(vq) =     1    4    144.6816716408

 nt, nb, sum(vq) =     1    5    874.4906781254

     total cpu time spent up to now is        6.4 secs

     total energy              =     -70.48347434 Ry
     Harris-Foulkes estimate   =     -72.19080761 Ry
     estimated scf accuracy    <       2.48454028 Ry

     iteration #  8     ecut=    50.00 Ry     beta=0.50
     Davidson diagonalization with overlap

 nt, nb, sum(vq) =     1    1      0.0000000000

 nt, nb, sum(vq) =     1    2    848.6035606494

 nt, nb, sum(vq) =     1    3    422.8595371006

 nt, nb, sum(vq) =     1    4    144.6816716408

 nt, nb, sum(vq) =     1    5    874.4906781254
     ethr =  5.69E-04,  avg # of iterations = 12.0

 nt, nb, sum(vq) =     1    1      0.0000000000

 nt, nb, sum(vq) =     1    2    848.6035606494

 nt, nb, sum(vq) =     1    3    422.8595371006

 nt, nb, sum(vq) =     1    4    144.6816716408

 nt, nb, sum(vq) =     1    5    874.4906781254

     total cpu time spent up to now is        8.0 secs

     total energy              =     -73.22701616 Ry
     Harris-Foulkes estimate   =     -73.25346818 Ry
     estimated scf accuracy    <      19.74075756 Ry

     iteration #  9     ecut=    50.00 Ry     beta=0.50
     Davidson diagonalization with overlap

 nt, nb, sum(vq) =     1    1      0.0000000000

 nt, nb, sum(vq) =     1    2    848.6035606494

 nt, nb, sum(vq) =     1    3    422.8595371006

 nt, nb, sum(vq) =     1    4    144.6816716408

 nt, nb, sum(vq) =     1    5    874.4906781254
     ethr =  5.69E-04,  avg # of iterations =  1.0

 nt, nb, sum(vq) =     1    1      0.0000000000

 nt, nb, sum(vq) =     1    2    848.6035606494

 nt, nb, sum(vq) =     1    3    422.8595371006

 nt, nb, sum(vq) =     1    4    144.6816716408

 nt, nb, sum(vq) =     1    5    874.4906781254

     total cpu time spent up to now is        8.7 secs

     total energy              =     -73.24693301 Ry
     Harris-Foulkes estimate   =     -73.22776182 Ry
     estimated scf accuracy    <      19.76853954 Ry

     iteration # 10     ecut=    50.00 Ry     beta=0.50
     Davidson diagonalization with overlap

 nt, nb, sum(vq) =     1    1      0.0000000000

 nt, nb, sum(vq) =     1    2    848.6035606494

 nt, nb, sum(vq) =     1    3    422.8595371006

 nt, nb, sum(vq) =     1    4    144.6816716408

 nt, nb, sum(vq) =     1    5    874.4906781254
     ethr =  5.69E-04,  avg # of iterations =  1.0

 nt, nb, sum(vq) =     1    1      0.0000000000

 nt, nb, sum(vq) =     1    2    848.6035606494

 nt, nb, sum(vq) =     1    3    422.8595371006

 nt, nb, sum(vq) =     1    4    144.6816716408

 nt, nb, sum(vq) =     1    5    874.4906781254

     total cpu time spent up to now is        9.4 secs

     total energy              =     -73.15244638 Ry
     Harris-Foulkes estimate   =     -73.24736629 Ry
     estimated scf accuracy    <      19.87580894 Ry

     iteration # 11     ecut=    50.00 Ry     beta=0.50
     Davidson diagonalization with overlap

 nt, nb, sum(vq) =     1    1      0.0000000000

 nt, nb, sum(vq) =     1    2    848.6035606494

 nt, nb, sum(vq) =     1    3    422.8595371006

 nt, nb, sum(vq) =     1    4    144.6816716408

 nt, nb, sum(vq) =     1    5    874.4906781254
     ethr =  5.69E-04,  avg # of iterations =  1.0

 nt, nb, sum(vq) =     1    1      0.0000000000

 nt, nb, sum(vq) =     1    2    848.6035606494

 nt, nb, sum(vq) =     1    3    422.8595371006

 nt, nb, sum(vq) =     1    4    144.6816716408

 nt, nb, sum(vq) =     1    5    874.4906781254

     negative rho (up, down):  2.442E-02 0.000E+00

     total cpu time spent up to now is       10.1 secs

     total energy              =     -73.80054055 Ry
     Harris-Foulkes estimate   =     -73.15292086 Ry
     estimated scf accuracy    <      19.68764407 Ry

     iteration # 12     ecut=    50.00 Ry     beta=0.50
     Davidson diagonalization with overlap

 nt, nb, sum(vq) =     1    1      0.0000000000

 nt, nb, sum(vq) =     1    2    848.6035606494

 nt, nb, sum(vq) =     1    3    422.8595371006

 nt, nb, sum(vq) =     1    4    144.6816716408

 nt, nb, sum(vq) =     1    5    874.4906781254
     ethr =  5.69E-04,  avg # of iterations =  9.0

 nt, nb, sum(vq) =     1    1      0.0000000000

 nt, nb, sum(vq) =     1    2    848.6035606494

 nt, nb, sum(vq) =     1    3    422.8595371006

 nt, nb, sum(vq) =     1    4    144.6816716408

 nt, nb, sum(vq) =     1    5    874.4906781254

     total cpu time spent up to now is       11.1 secs

     total energy              =     -67.08389259 Ry
     Harris-Foulkes estimate   =     -74.13574575 Ry
     estimated scf accuracy    <      26.51942343 Ry

     iteration # 13     ecut=    50.00 Ry     beta=0.50
     Davidson diagonalization with overlap

 nt, nb, sum(vq) =     1    1      0.0000000000

 nt, nb, sum(vq) =     1    2    848.6035606494

 nt, nb, sum(vq) =     1    3    422.8595371006

 nt, nb, sum(vq) =     1    4    144.6816716408

 nt, nb, sum(vq) =     1    5    874.4906781254
     ethr =  5.69E-04,  avg # of iterations =  6.0

 nt, nb, sum(vq) =     1    1      0.0000000000

 nt, nb, sum(vq) =     1    2    848.6035606494

 nt, nb, sum(vq) =     1    3    422.8595371006

 nt, nb, sum(vq) =     1    4    144.6816716408

 nt, nb, sum(vq) =     1    5    874.4906781254

     total cpu time spent up to now is       12.3 secs

     total energy              =     -70.60210831 Ry
     Harris-Foulkes estimate   =     -70.65016228 Ry
     estimated scf accuracy    <       0.62371309 Ry

     iteration # 14     ecut=    50.00 Ry     beta=0.50
     Davidson diagonalization with overlap

 nt, nb, sum(vq) =     1    1      0.0000000000

 nt, nb, sum(vq) =     1    2    848.6035606494

 nt, nb, sum(vq) =     1    3    422.8595371006

 nt, nb, sum(vq) =     1    4    144.6816716408

 nt, nb, sum(vq) =     1    5    874.4906781254
     ethr =  5.69E-04,  avg # of iterations =  1.0

 nt, nb, sum(vq) =     1    1      0.0000000000

 nt, nb, sum(vq) =     1    2    848.6035606494

 nt, nb, sum(vq) =     1    3    422.8595371006

 nt, nb, sum(vq) =     1    4    144.6816716408

 nt, nb, sum(vq) =     1    5    874.4906781254

     negative rho (up, down):  6.201E-04 0.000E+00

     total cpu time spent up to now is       12.9 secs

     total energy              =     -70.58651538 Ry
     Harris-Foulkes estimate   =     -70.60381008 Ry
     estimated scf accuracy    <       0.48838509 Ry

     iteration # 15     ecut=    50.00 Ry     beta=0.50
     Davidson diagonalization with overlap

 nt, nb, sum(vq) =     1    1      0.0000000000

 nt, nb, sum(vq) =     1    2    848.6035606494

 nt, nb, sum(vq) =     1    3    422.8595371006

 nt, nb, sum(vq) =     1    4    144.6816716408

 nt, nb, sum(vq) =     1    5    874.4906781254
     ethr =  5.69E-04,  avg # of iterations =  1.0

 nt, nb, sum(vq) =     1    1      0.0000000000

 nt, nb, sum(vq) =     1    2    848.6035606494

 nt, nb, sum(vq) =     1    3    422.8595371006

 nt, nb, sum(vq) =     1    4    144.6816716408

 nt, nb, sum(vq) =     1    5    874.4906781254

     negative rho (up, down):  8.425E-04 0.000E+00

     total cpu time spent up to now is       13.6 secs

     total energy              =     -70.58353322 Ry
     Harris-Foulkes estimate   =     -70.58705000 Ry
     estimated scf accuracy    <       0.43187174 Ry

     iteration # 16     ecut=    50.00 Ry     beta=0.50
     Davidson diagonalization with overlap

 nt, nb, sum(vq) =     1    1      0.0000000000

 nt, nb, sum(vq) =     1    2    848.6035606494

 nt, nb, sum(vq) =     1    3    422.8595371006

 nt, nb, sum(vq) =     1    4    144.6816716408

 nt, nb, sum(vq) =     1    5    874.4906781254
     ethr =  5.69E-04,  avg # of iterations =  1.0

 nt, nb, sum(vq) =     1    1      0.0000000000

 nt, nb, sum(vq) =     1    2    848.6035606494

 nt, nb, sum(vq) =     1    3    422.8595371006

 nt, nb, sum(vq) =     1    4    144.6816716408

 nt, nb, sum(vq) =     1    5    874.4906781254

     negative rho (up, down):  7.889E-02 0.000E+00

     total cpu time spent up to now is       14.3 secs

     total energy              =     -70.36214996 Ry
     Harris-Foulkes estimate   =     -70.58373385 Ry
     estimated scf accuracy    <       0.41757479 Ry

     iteration # 17     ecut=    50.00 Ry     beta=0.50
     Davidson diagonalization with overlap

 nt, nb, sum(vq) =     1    1      0.0000000000

 nt, nb, sum(vq) =     1    2    848.6035606494

 nt, nb, sum(vq) =     1    3    422.8595371006

 nt, nb, sum(vq) =     1    4    144.6816716408

 nt, nb, sum(vq) =     1    5    874.4906781254
     ethr =  5.69E-04,  avg # of iterations =  8.0

 nt, nb, sum(vq) =     1    1      0.0000000000

 nt, nb, sum(vq) =     1    2    848.6035606494

 nt, nb, sum(vq) =     1    3    422.8595371006

 nt, nb, sum(vq) =     1    4    144.6816716408

 nt, nb, sum(vq) =     1    5    874.4906781254

     total cpu time spent up to now is       15.3 secs

     total energy              =     -71.72197850 Ry
     Harris-Foulkes estimate   =     -72.06704228 Ry
     estimated scf accuracy    <       1.50608823 Ry

     iteration # 18     ecut=    50.00 Ry     beta=0.50
     Davidson diagonalization with overlap

 nt, nb, sum(vq) =     1    1      0.0000000000

 nt, nb, sum(vq) =     1    2    848.6035606494

 nt, nb, sum(vq) =     1    3    422.8595371006

 nt, nb, sum(vq) =     1    4    144.6816716408

 nt, nb, sum(vq) =     1    5    874.4906781254
     ethr =  5.69E-04,  avg # of iterations =  2.0

 nt, nb, sum(vq) =     1    1      0.0000000000

 nt, nb, sum(vq) =     1    2    848.6035606494

 nt, nb, sum(vq) =     1    3    422.8595371006

 nt, nb, sum(vq) =     1    4    144.6816716408

 nt, nb, sum(vq) =     1    5    874.4906781254

     total cpu time spent up to now is       16.1 secs

     total energy              =     -71.41129801 Ry
     Harris-Foulkes estimate   =     -71.75297993 Ry
     estimated scf accuracy    <       0.68502047 Ry

     iteration # 19     ecut=    50.00 Ry     beta=0.50
     Davidson diagonalization with overlap

 nt, nb, sum(vq) =     1    1      0.0000000000

 nt, nb, sum(vq) =     1    2    848.6035606494

 nt, nb, sum(vq) =     1    3    422.8595371006

 nt, nb, sum(vq) =     1    4    144.6816716408

 nt, nb, sum(vq) =     1    5    874.4906781254
     ethr =  5.69E-04,  avg # of iterations =  2.0

 nt, nb, sum(vq) =     1    1      0.0000000000

 nt, nb, sum(vq) =     1    2    848.6035606494

 nt, nb, sum(vq) =     1    3    422.8595371006

 nt, nb, sum(vq) =     1    4    144.6816716408

 nt, nb, sum(vq) =     1    5    874.4906781254

     total cpu time spent up to now is       16.9 secs

     total energy              =     -71.49963480 Ry
     Harris-Foulkes estimate   =     -71.51112858 Ry
     estimated scf accuracy    <       0.06703025 Ry

     iteration # 20     ecut=    50.00 Ry     beta=0.50
     Davidson diagonalization with overlap

 nt, nb, sum(vq) =     1    1      0.0000000000

 nt, nb, sum(vq) =     1    2    848.6035606494

 nt, nb, sum(vq) =     1    3    422.8595371006

 nt, nb, sum(vq) =     1    4    144.6816716408

 nt, nb, sum(vq) =     1    5    874.4906781254
     ethr =  5.69E-04,  avg # of iterations =  1.0

 nt, nb, sum(vq) =     1    1      0.0000000000

 nt, nb, sum(vq) =     1    2    848.6035606494

 nt, nb, sum(vq) =     1    3    422.8595371006

 nt, nb, sum(vq) =     1    4    144.6816716408

 nt, nb, sum(vq) =     1    5    874.4906781254

     total cpu time spent up to now is       17.6 secs

     total energy              =     -71.49398468 Ry
     Harris-Foulkes estimate   =     -71.50011058 Ry
     estimated scf accuracy    <       0.04312400 Ry

     iteration # 21     ecut=    50.00 Ry     beta=0.50
     Davidson diagonalization with overlap

 nt, nb, sum(vq) =     1    1      0.0000000000

 nt, nb, sum(vq) =     1    2    848.6035606494

 nt, nb, sum(vq) =     1    3    422.8595371006

 nt, nb, sum(vq) =     1    4    144.6816716408

 nt, nb, sum(vq) =     1    5    874.4906781254
     ethr =  4.31E-04,  avg # of iterations =  2.0

 nt, nb, sum(vq) =     1    1      0.0000000000

 nt, nb, sum(vq) =     1    2    848.6035606494

 nt, nb, sum(vq) =     1    3    422.8595371006

 nt, nb, sum(vq) =     1    4    144.6816716408

 nt, nb, sum(vq) =     1    5    874.4906781254

     negative rho (up, down):  1.205E-02 0.000E+00

     total cpu time spent up to now is       18.3 secs

     total energy              =     -71.61963773 Ry
     Harris-Foulkes estimate   =     -71.49976232 Ry
     estimated scf accuracy    <       0.05164333 Ry

     iteration # 22     ecut=    50.00 Ry     beta=0.50
     Davidson diagonalization with overlap

 nt, nb, sum(vq) =     1    1      0.0000000000

 nt, nb, sum(vq) =     1    2    848.6035606494

 nt, nb, sum(vq) =     1    3    422.8595371006

 nt, nb, sum(vq) =     1    4    144.6816716408

 nt, nb, sum(vq) =     1    5    874.4906781254
     ethr =  4.31E-04,  avg # of iterations =  6.0

 nt, nb, sum(vq) =     1    1      0.0000000000

 nt, nb, sum(vq) =     1    2    848.6035606494

 nt, nb, sum(vq) =     1    3    422.8595371006

 nt, nb, sum(vq) =     1    4    144.6816716408

 nt, nb, sum(vq) =     1    5    874.4906781254

     negative rho (up, down):  3.998E-04 0.000E+00

     total cpu time spent up to now is       19.4 secs

     total energy              =     -70.86122614 Ry
     Harris-Foulkes estimate   =     -71.90478574 Ry
     estimated scf accuracy    <       2.64054706 Ry

     iteration # 23     ecut=    50.00 Ry     beta=0.50
     Davidson diagonalization with overlap

 nt, nb, sum(vq) =     1    1      0.0000000000

 nt, nb, sum(vq) =     1    2    848.6035606494

 nt, nb, sum(vq) =     1    3    422.8595371006

 nt, nb, sum(vq) =     1    4    144.6816716408

 nt, nb, sum(vq) =     1    5    874.4906781254
     ethr =  4.31E-04,  avg # of iterations =  3.0

 nt, nb, sum(vq) =     1    1      0.0000000000

 nt, nb, sum(vq) =     1    2    848.6035606494

 nt, nb, sum(vq) =     1    3    422.8595371006

 nt, nb, sum(vq) =     1    4    144.6816716408

 nt, nb, sum(vq) =     1    5    874.4906781254

     negative rho (up, down):  1.224E-04 0.000E+00

     total cpu time spent up to now is       20.3 secs

     total energy              =     -71.53049294 Ry
     Harris-Foulkes estimate   =     -71.49388778 Ry
     estimated scf accuracy    <       0.02861891 Ry

     iteration # 24     ecut=    50.00 Ry     beta=0.50
     Davidson diagonalization with overlap

 nt, nb, sum(vq) =     1    1      0.0000000000

 nt, nb, sum(vq) =     1    2    848.6035606494

 nt, nb, sum(vq) =     1    3    422.8595371006

 nt, nb, sum(vq) =     1    4    144.6816716408

 nt, nb, sum(vq) =     1    5    874.4906781254
     ethr =  2.86E-04,  avg # of iterations =  2.0

 nt, nb, sum(vq) =     1    1      0.0000000000

 nt, nb, sum(vq) =     1    2    848.6035606494

 nt, nb, sum(vq) =     1    3    422.8595371006

 nt, nb, sum(vq) =     1    4    144.6816716408

 nt, nb, sum(vq) =     1    5    874.4906781254

     negative rho (up, down):  1.382E-04 0.000E+00

     total cpu time spent up to now is       21.1 secs

     total energy              =     -71.46568849 Ry
     Harris-Foulkes estimate   =     -71.55013698 Ry
     estimated scf accuracy    <       0.18486332 Ry

     iteration # 25     ecut=    50.00 Ry     beta=0.50
     Davidson diagonalization with overlap

 nt, nb, sum(vq) =     1    1      0.0000000000

 nt, nb, sum(vq) =     1    2    848.6035606494

 nt, nb, sum(vq) =     1    3    422.8595371006

 nt, nb, sum(vq) =     1    4    144.6816716408

 nt, nb, sum(vq) =     1    5    874.4906781254
     ethr =  2.86E-04,  avg # of iterations =  2.0

 nt, nb, sum(vq) =     1    1      0.0000000000

 nt, nb, sum(vq) =     1    2    848.6035606494

 nt, nb, sum(vq) =     1    3    422.8595371006

 nt, nb, sum(vq) =     1    4    144.6816716408

 nt, nb, sum(vq) =     1    5    874.4906781254

     negative rho (up, down):  1.659E-04 0.000E+00

     total cpu time spent up to now is       21.9 secs

     total energy              =     -71.48893976 Ry
     Harris-Foulkes estimate   =     -71.48802661 Ry
     estimated scf accuracy    <       0.01002355 Ry

     iteration # 26     ecut=    50.00 Ry     beta=0.50
     Davidson diagonalization with overlap

 nt, nb, sum(vq) =     1    1      0.0000000000

 nt, nb, sum(vq) =     1    2    848.6035606494

 nt, nb, sum(vq) =     1    3    422.8595371006

 nt, nb, sum(vq) =     1    4    144.6816716408

 nt, nb, sum(vq) =     1    5    874.4906781254
     ethr =  1.00E-04,  avg # of iterations =  1.0

 nt, nb, sum(vq) =     1    1      0.0000000000

 nt, nb, sum(vq) =     1    2    848.6035606494

 nt, nb, sum(vq) =     1    3    422.8595371006

 nt, nb, sum(vq) =     1    4    144.6816716408

 nt, nb, sum(vq) =     1    5    874.4906781254

     negative rho (up, down):  1.108E-04 0.000E+00

     total cpu time spent up to now is       22.6 secs

     total energy              =     -71.48794150 Ry
     Harris-Foulkes estimate   =     -71.48905407 Ry
     estimated scf accuracy    <       0.01186054 Ry

     iteration # 27     ecut=    50.00 Ry     beta=0.50
     Davidson diagonalization with overlap

 nt, nb, sum(vq) =     1    1      0.0000000000

 nt, nb, sum(vq) =     1    2    848.6035606494

 nt, nb, sum(vq) =     1    3    422.8595371006

 nt, nb, sum(vq) =     1    4    144.6816716408

 nt, nb, sum(vq) =     1    5    874.4906781254
     ethr =  1.00E-04,  avg # of iterations =  1.0

 nt, nb, sum(vq) =     1    1      0.0000000000

 nt, nb, sum(vq) =     1    2    848.6035606494

 nt, nb, sum(vq) =     1    3    422.8595371006

 nt, nb, sum(vq) =     1    4    144.6816716408

 nt, nb, sum(vq) =     1    5    874.4906781254

     negative rho (up, down):  1.654E-04 0.000E+00

     total cpu time spent up to now is       23.3 secs

     total energy              =     -71.48814338 Ry
     Harris-Foulkes estimate   =     -71.48797780 Ry
     estimated scf accuracy    <       0.00969517 Ry

     iteration # 28     ecut=    50.00 Ry     beta=0.50
     Davidson diagonalization with overlap

 nt, nb, sum(vq) =     1    1      0.0000000000

 nt, nb, sum(vq) =     1    2    848.6035606494

 nt, nb, sum(vq) =     1    3    422.8595371006

 nt, nb, sum(vq) =     1    4    144.6816716408

 nt, nb, sum(vq) =     1    5    874.4906781254
     ethr =  9.70E-05,  avg # of iterations =  1.0

 nt, nb, sum(vq) =     1    1      0.0000000000

 nt, nb, sum(vq) =     1    2    848.6035606494

 nt, nb, sum(vq) =     1    3    422.8595371006

 nt, nb, sum(vq) =     1    4    144.6816716408

 nt, nb, sum(vq) =     1    5    874.4906781254

     negative rho (up, down):  5.059E-05 0.000E+00

     total cpu time spent up to now is       23.9 secs

     total energy              =     -71.49275092 Ry
     Harris-Foulkes estimate   =     -71.48815208 Ry
     estimated scf accuracy    <       0.00984777 Ry

     iteration # 29     ecut=    50.00 Ry     beta=0.50
     Davidson diagonalization with overlap

 nt, nb, sum(vq) =     1    1      0.0000000000

 nt, nb, sum(vq) =     1    2    848.6035606494

 nt, nb, sum(vq) =     1    3    422.8595371006

 nt, nb, sum(vq) =     1    4    144.6816716408

 nt, nb, sum(vq) =     1    5    874.4906781254
     ethr =  9.70E-05,  avg # of iterations =  2.0

 nt, nb, sum(vq) =     1    1      0.0000000000

 nt, nb, sum(vq) =     1    2    848.6035606494

 nt, nb, sum(vq) =     1    3    422.8595371006

 nt, nb, sum(vq) =     1    4    144.6816716408

 nt, nb, sum(vq) =     1    5    874.4906781254

     negative rho (up, down):  3.500E-04 0.000E+00

     total cpu time spent up to now is       24.6 secs

     total energy              =     -71.47408417 Ry
     Harris-Foulkes estimate   =     -71.49349883 Ry
     estimated scf accuracy    <       0.02511713 Ry

     iteration # 30     ecut=    50.00 Ry     beta=0.50
     Davidson diagonalization with overlap

 nt, nb, sum(vq) =     1    1      0.0000000000

 nt, nb, sum(vq) =     1    2    848.6035606494

 nt, nb, sum(vq) =     1    3    422.8595371006

 nt, nb, sum(vq) =     1    4    144.6816716408

 nt, nb, sum(vq) =     1    5    874.4906781254
     ethr =  9.70E-05,  avg # of iterations =  3.0

 nt, nb, sum(vq) =     1    1      0.0000000000

 nt, nb, sum(vq) =     1    2    848.6035606494

 nt, nb, sum(vq) =     1    3    422.8595371006

 nt, nb, sum(vq) =     1    4    144.6816716408

 nt, nb, sum(vq) =     1    5    874.4906781254

     negative rho (up, down):  3.676E-03 0.000E+00

     total cpu time spent up to now is       25.5 secs

     total energy              =     -71.48990452 Ry
     Harris-Foulkes estimate   =     -71.48921658 Ry
     estimated scf accuracy    <       0.01481467 Ry

     iteration # 31     ecut=    50.00 Ry     beta=0.50
     Davidson diagonalization with overlap

 nt, nb, sum(vq) =     1    1      0.0000000000

 nt, nb, sum(vq) =     1    2    848.6035606494

 nt, nb, sum(vq) =     1    3    422.8595371006

 nt, nb, sum(vq) =     1    4    144.6816716408

 nt, nb, sum(vq) =     1    5    874.4906781254
     ethr =  9.70E-05,  avg # of iterations =  1.0

 nt, nb, sum(vq) =     1    1      0.0000000000

 nt, nb, sum(vq) =     1    2    848.6035606494

 nt, nb, sum(vq) =     1    3    422.8595371006

 nt, nb, sum(vq) =     1    4    144.6816716408

 nt, nb, sum(vq) =     1    5    874.4906781254

     total cpu time spent up to now is       26.2 secs

     total energy              =     -71.48124117 Ry
     Harris-Foulkes estimate   =     -71.48995543 Ry
     estimated scf accuracy    <       0.01634305 Ry

     iteration # 32     ecut=    50.00 Ry     beta=0.50
     Davidson diagonalization with overlap

 nt, nb, sum(vq) =     1    1      0.0000000000

 nt, nb, sum(vq) =     1    2    848.6035606494

 nt, nb, sum(vq) =     1    3    422.8595371006

 nt, nb, sum(vq) =     1    4    144.6816716408

 nt, nb, sum(vq) =     1    5    874.4906781254
     ethr =  9.70E-05,  avg # of iterations =  2.0

 nt, nb, sum(vq) =     1    1      0.0000000000

 nt, nb, sum(vq) =     1    2    848.6035606494

 nt, nb, sum(vq) =     1    3    422.8595371006

 nt, nb, sum(vq) =     1    4    144.6816716408

 nt, nb, sum(vq) =     1    5    874.4906781254

     total cpu time spent up to now is       27.0 secs

     total energy              =     -71.48494996 Ry
     Harris-Foulkes estimate   =     -71.48497939 Ry
     estimated scf accuracy    <       0.00009855 Ry

     iteration # 33     ecut=    50.00 Ry     beta=0.50
     Davidson diagonalization with overlap

 nt, nb, sum(vq) =     1    1      0.0000000000

 nt, nb, sum(vq) =     1    2    848.6035606494

 nt, nb, sum(vq) =     1    3    422.8595371006

 nt, nb, sum(vq) =     1    4    144.6816716408

 nt, nb, sum(vq) =     1    5    874.4906781254
     ethr =  9.86E-07,  avg # of iterations =  3.0

 nt, nb, sum(vq) =     1    1      0.0000000000

 nt, nb, sum(vq) =     1    2    848.6035606494

 nt, nb, sum(vq) =     1    3    422.8595371006

 nt, nb, sum(vq) =     1    4    144.6816716408

 nt, nb, sum(vq) =     1    5    874.4906781254

     total cpu time spent up to now is       27.9 secs

     total energy              =     -71.48496857 Ry
     Harris-Foulkes estimate   =     -71.48497312 Ry
     estimated scf accuracy    <       0.00002440 Ry

     iteration # 34     ecut=    50.00 Ry     beta=0.50
     Davidson diagonalization with overlap

 nt, nb, sum(vq) =     1    1      0.0000000000

 nt, nb, sum(vq) =     1    2    848.6035606494

 nt, nb, sum(vq) =     1    3    422.8595371006

 nt, nb, sum(vq) =     1    4    144.6816716408

 nt, nb, sum(vq) =     1    5    874.4906781254
     ethr =  2.44E-07,  avg # of iterations =  1.0

 nt, nb, sum(vq) =     1    1      0.0000000000

 nt, nb, sum(vq) =     1    2    848.6035606494

 nt, nb, sum(vq) =     1    3    422.8595371006

 nt, nb, sum(vq) =     1    4    144.6816716408

 nt, nb, sum(vq) =     1    5    874.4906781254

     negative rho (up, down):  3.417E-06 0.000E+00

     total cpu time spent up to now is       28.6 secs

     total energy              =     -71.48495984 Ry
     Harris-Foulkes estimate   =     -71.48496898 Ry
     estimated scf accuracy    <       0.00001744 Ry

     iteration # 35     ecut=    50.00 Ry     beta=0.50
     Davidson diagonalization with overlap

 nt, nb, sum(vq) =     1    1      0.0000000000

 nt, nb, sum(vq) =     1    2    848.6035606494

 nt, nb, sum(vq) =     1    3    422.8595371006

 nt, nb, sum(vq) =     1    4    144.6816716408

 nt, nb, sum(vq) =     1    5    874.4906781254
     ethr =  1.74E-07,  avg # of iterations =  2.0

 nt, nb, sum(vq) =     1    1      0.0000000000

 nt, nb, sum(vq) =     1    2    848.6035606494

 nt, nb, sum(vq) =     1    3    422.8595371006

 nt, nb, sum(vq) =     1    4    144.6816716408

 nt, nb, sum(vq) =     1    5    874.4906781254

     total cpu time spent up to now is       29.5 secs

     total energy              =     -71.48496435 Ry
     Harris-Foulkes estimate   =     -71.48497987 Ry
     estimated scf accuracy    <       0.00004310 Ry

     iteration # 36     ecut=    50.00 Ry     beta=0.50
     Davidson diagonalization with overlap

 nt, nb, sum(vq) =     1    1      0.0000000000

 nt, nb, sum(vq) =     1    2    848.6035606494

 nt, nb, sum(vq) =     1    3    422.8595371006

 nt, nb, sum(vq) =     1    4    144.6816716408

 nt, nb, sum(vq) =     1    5    874.4906781254
     ethr =  1.74E-07,  avg # of iterations =  2.0

 nt, nb, sum(vq) =     1    1      0.0000000000

 nt, nb, sum(vq) =     1    2    848.6035606494

 nt, nb, sum(vq) =     1    3    422.8595371006

 nt, nb, sum(vq) =     1    4    144.6816716408

 nt, nb, sum(vq) =     1    5    874.4906781254

     total cpu time spent up to now is       30.3 secs

     total energy              =     -71.48496861 Ry
     Harris-Foulkes estimate   =     -71.48496925 Ry
     estimated scf accuracy    <       0.00000329 Ry

     iteration # 37     ecut=    50.00 Ry     beta=0.50
     Davidson diagonalization with overlap

 nt, nb, sum(vq) =     1    1      0.0000000000

 nt, nb, sum(vq) =     1    2    848.6035606494

 nt, nb, sum(vq) =     1    3    422.8595371006

 nt, nb, sum(vq) =     1    4    144.6816716408

 nt, nb, sum(vq) =     1    5    874.4906781254
     ethr =  3.29E-08,  avg # of iterations =  2.0

 nt, nb, sum(vq) =     1    1      0.0000000000

 nt, nb, sum(vq) =     1    2    848.6035606494

 nt, nb, sum(vq) =     1    3    422.8595371006

 nt, nb, sum(vq) =     1    4    144.6816716408

 nt, nb, sum(vq) =     1    5    874.4906781254

     total cpu time spent up to now is       30.9 secs

     End of self-consistent calculation

          k = 0.0000 0.0000 0.0000 ( 24405 PWs)   bands (ev):

   -54.9391  -5.7643  -5.7527  -5.7527  -4.8705

     highest occupied level (ev):    -4.8705

!    total energy              =     -71.48496891 Ry
     Harris-Foulkes estimate   =     -71.48496892 Ry
     estimated scf accuracy    <       0.00000049 Ry

     The total energy is the sum of the following terms:

     one-electron contribution =     -88.81130883 Ry
     hartree contribution      =      45.73944898 Ry
     xc contribution           =     -10.67999977 Ry
     ewald contribution        =     -17.73310929 Ry

     convergence has been achieved in  37 iterations

     Writing output data file pwscf.save

     init_run     :      0.42s CPU      0.45s WALL (       1 calls)
     electrons    :     30.42s CPU     30.53s WALL (       1 calls)

     Called by init_run:
     wfcinit      :      0.14s CPU      0.15s WALL (       1 calls)
     potinit      :      0.10s CPU      0.11s WALL (       1 calls)

     Called by electrons:
     c_bands      :     16.22s CPU     16.24s WALL (      37 calls)
     sum_band     :      5.06s CPU      5.07s WALL (      37 calls)
     v_of_rho     :      3.12s CPU      3.13s WALL (      38 calls)
     mix_rho      :      5.68s CPU      5.69s WALL (      37 calls)

     Called by c_bands:
     init_us_2    :      1.28s CPU      1.28s WALL (      75 calls)
     cegterg      :     14.75s CPU     14.77s WALL (      37 calls)

     Called by sum_band:

     Called by *egterg:
     h_psi        :     13.30s CPU     13.32s WALL (     152 calls)
     g_psi        :      0.17s CPU      0.17s WALL (     114 calls)
     cdiaghg      :      0.03s CPU      0.02s WALL (     151 calls)

     Called by h_psi:
     h_psi:pot    :     13.17s CPU     13.20s WALL (     152 calls)
     h_psi:calbec :      0.39s CPU      0.38s WALL (     152 calls)
     vloc_psi     :     12.41s CPU     12.43s WALL (     152 calls)
     add_vuspsi   :      0.37s CPU      0.39s WALL (     152 calls)

     General routines
     calbec       :      0.39s CPU      0.38s WALL (     152 calls)
     fft          :      1.81s CPU      1.83s WALL (     151 calls)
     fftw         :     11.93s CPU     11.90s WALL (    1397 calls)

     Parallel routines
     fft_scatter  :      2.29s CPU      2.25s WALL (    1548 calls)

     PWSCF        :    31.00s CPU        31.22s WALL


   This run was terminated on:  21:50:11   2May2017            

=------------------------------------------------------------------------------=
   JOB DONE.
=------------------------------------------------------------------------------=
