
     Program PWSCF v.6.1 (svn rev. 13369) starts on 15May2017 at 16:25:25 

     This program is part of the open-source Quantum ESPRESSO suite
     for quantum simulation of materials; please cite
         "P. Giannozzi et al., J. Phys.:Condens. Matter 21 395502 (2009);
          URL http://www.quantum-espresso.org", 
     in publications or presentations arising from this work. More details at
     http://www.quantum-espresso.org/quote

     Parallel version (MPI), running on     1 processors
     Waiting for input...
     Reading input from standard input

     Current dimensions of program PWSCF are:
     Max number of different atomic species (ntypx) = 10
     Max number of k-points (npk) =  40000
     Max angular momentum in pseudopotentials (lmaxx) =  3

     Subspace diagonalization in iterative solution of the eigenvalue problem:
     a serial algorithm will be used


     G-vector sticks info
     --------------------
     sticks:   dense  smooth     PW     G-vecs:    dense   smooth      PW
     Sum       16281   16281   4053              1564577  1564577  195269



     bravais-lattice index     =            0
     lattice parameter (alat)  =      16.0000  a.u.
     unit-cell volume          =    4096.0000 (a.u.)^3
     number of atoms/cell      =            1
     number of atomic types    =            1
     number of electrons       =         2.00
     number of Kohn-Sham states=            1
     kinetic-energy cutoff     =     200.0000  Ry
     charge density cutoff     =     800.0000  Ry
     convergence threshold     =      1.0E-06
     mixing beta               =       0.5000
     number of iterations used =            8  plain     mixing
     Exchange-correlation      = PZ ( 1  1  0  0 0 0)

     celldm(1)=  16.000000  celldm(2)=   0.000000  celldm(3)=   0.000000
     celldm(4)=   0.000000  celldm(5)=   0.000000  celldm(6)=   0.000000

     crystal axes: (cart. coord. in units of alat)
               a(1) = (   1.000000   0.000000   0.000000 )  
               a(2) = (   0.000000   1.000000   0.000000 )  
               a(3) = (   0.000000   0.000000   1.000000 )  

     reciprocal axes: (cart. coord. in units 2 pi/alat)
               b(1) = (  1.000000  0.000000  0.000000 )  
               b(2) = (  0.000000  1.000000  0.000000 )  
               b(3) = (  0.000000  0.000000  1.000000 )  


     PseudoPot. # 1 for Be read from file:
     ./Be.2.LDA.gth
     MD5 check sum: 0626c6a3ae8ba2e4c5c6a6f18a69bb74
     Pseudo is Norm-conserving, Zval =  2.0
     GTH norm-conserving PP, generated by Matthias Krack
     Using radial grid of 1041 points,  2 beta functions with: 
                l(1) =   0
                l(2) =   1

     atomic species   valence    mass     pseudopotential
        Be             2.00     1.00000     Be( 1.00)

     48 Sym. Ops., with inversion, found



   Cartesian axes

     site n.     atom                  positions (alat units)
         1           Be  tau(   1) = (   0.0000000   0.0000000   0.0000000  )

     number of k points=     1
                       cart. coord. in units 2pi/alat
        k(    1) = (   0.0000000   0.0000000   0.0000000), wk =   2.0000000

     Dense  grid:  1564577 G-vectors     FFT dimensions: ( 150, 150, 150)

     Estimated max dynamical RAM per process >     885.29MB

     Initial potential from superposition of free atoms
     Starting wfc are random

     total cpu time spent up to now is        5.3 secs

     per-process dynamical memory:   576.5 Mb

     Self-consistent Calculation

     iteration #  1     ecut=   200.00 Ry     beta=0.50
     Davidson diagonalization with overlap
     ethr =  1.00E-02,  avg # of iterations =  8.0

     total cpu time spent up to now is        9.6 secs

     total energy              =      -1.97576801 Ry
     Harris-Foulkes estimate   =      -1.98967761 Ry
     estimated scf accuracy    <       0.04792147 Ry

     iteration #  2     ecut=   200.00 Ry     beta=0.50
     Davidson diagonalization with overlap
     ethr =  2.40E-03,  avg # of iterations =  2.0

     total cpu time spent up to now is       12.2 secs

     total energy              =      -1.98294030 Ry
     Harris-Foulkes estimate   =      -1.98379745 Ry
     estimated scf accuracy    <       0.00637128 Ry

     iteration #  3     ecut=   200.00 Ry     beta=0.50
     Davidson diagonalization with overlap
     ethr =  3.19E-04,  avg # of iterations =  2.0

     total cpu time spent up to now is       14.9 secs

     total energy              =      -1.98452350 Ry
     Harris-Foulkes estimate   =      -1.98424736 Ry
     estimated scf accuracy    <       0.00010612 Ry

     iteration #  4     ecut=   200.00 Ry     beta=0.50
     Davidson diagonalization with overlap
     ethr =  5.31E-06,  avg # of iterations =  4.0

     total cpu time spent up to now is       17.3 secs

     End of self-consistent calculation

          k = 0.0000 0.0000 0.0000 (195269 PWs)   bands (ev):

    -5.4190

     highest occupied level (ev):    -5.4190

!    total energy              =      -1.98470565 Ry
     Harris-Foulkes estimate   =      -1.98470479 Ry
     estimated scf accuracy    <       0.00000088 Ry

     The total energy is the sum of the following terms:

     one-electron contribution =      -1.24013380 Ry
     hartree contribution      =       0.70205141 Ry
     xc contribution           =      -0.73729890 Ry
     ewald contribution        =      -0.70932437 Ry

     convergence has been achieved in   4 iterations

     Writing output data file pwscf.save

     init_run     :      3.40s CPU      4.79s WALL (       1 calls)
     electrons    :     11.18s CPU     12.41s WALL (       1 calls)

     Called by init_run:
     wfcinit      :      0.27s CPU      0.49s WALL (       1 calls)
     potinit      :      1.04s CPU      1.46s WALL (       1 calls)

     Called by electrons:
     c_bands      :      4.10s CPU      4.45s WALL (       4 calls)
     sum_band     :      2.48s CPU      2.57s WALL (       4 calls)
     v_of_rho     :      3.22s CPU      3.43s WALL (       5 calls)
     mix_rho      :      1.34s CPU      1.83s WALL (       4 calls)

     Called by c_bands:
     init_us_2    :      0.50s CPU      0.51s WALL (       9 calls)
     cegterg      :      3.80s CPU      4.13s WALL (       4 calls)

     Called by sum_band:

     Called by *egterg:
     h_psi        :      3.72s CPU      3.92s WALL (      21 calls)
     g_psi        :      0.07s CPU      0.06s WALL (      16 calls)
     cdiaghg      :      0.00s CPU      0.31s WALL (      20 calls)

     Called by h_psi:
     h_psi:pot    :      3.70s CPU      3.88s WALL (      21 calls)
     h_psi:calbec :      0.04s CPU      0.10s WALL (      21 calls)
     vloc_psi     :      3.61s CPU      3.74s WALL (      21 calls)
     add_vuspsi   :      0.04s CPU      0.04s WALL (      21 calls)

     General routines
     calbec       :      0.04s CPU      0.10s WALL (      21 calls)
     fft          :      2.03s CPU      2.62s WALL (      19 calls)
     fftw         :      3.30s CPU      3.42s WALL (      46 calls)

     Parallel routines
     fft_scatter  :      0.88s CPU      1.00s WALL (      65 calls)

     PWSCF        :    15.09s CPU        18.29s WALL


   This run was terminated on:  16:25:43  15May2017            

=------------------------------------------------------------------------------=
   JOB DONE.
=------------------------------------------------------------------------------=
