 CRYSTAL
 PRIMVEC
    3.324918462    0.000000000    0.000000000
    0.000000000    3.324918462    0.000000000
    0.000000000    0.000000000    3.324918462
 PRIMCOORD
           1           1
H         1.662459231    1.662459231    1.662459231
