
     Program PWSCF v.6.1 (svn rev. 13369) starts on 18Apr2017 at 17: 3:20 

     This program is part of the open-source Quantum ESPRESSO suite
     for quantum simulation of materials; please cite
         "P. Giannozzi et al., J. Phys.:Condens. Matter 21 395502 (2009);
          URL http://www.quantum-espresso.org", 
     in publications or presentations arising from this work. More details at
     http://www.quantum-espresso.org/quote

     Parallel version (MPI), running on     1 processors
     Waiting for input...
     Reading input from standard input

     Current dimensions of program PWSCF are:
     Max number of different atomic species (ntypx) = 10
     Max number of k-points (npk) =  40000
     Max angular momentum in pseudopotentials (lmaxx) =  3
 rloc=   0.3488305
 cc(1:2)=  -8.5137711   1.2284320

     Subspace diagonalization in iterative solution of the eigenvalue problem:
     a serial algorithm will be used


     G-vector sticks info
     --------------------
     sticks:   dense  smooth     PW     G-vecs:    dense   smooth      PW
     Sum        2861    2861    717               114497   114497   14243



     bravais-lattice index     =            0
     lattice parameter (alat)  =      16.0000  a.u.
     unit-cell volume          =    4096.0000 (a.u.)^3
     number of atoms/cell      =            1
     number of atomic types    =            1
     number of electrons       =         4.00
     number of Kohn-Sham states=            2
     kinetic-energy cutoff     =      35.0000  Ry
     charge density cutoff     =     140.0000  Ry
     convergence threshold     =      1.0E-06
     mixing beta               =       0.5000
     number of iterations used =            8  plain     mixing
     Exchange-correlation      = PZ ( 1  1  0  0 0 0)

     celldm(1)=  16.000000  celldm(2)=   0.000000  celldm(3)=   0.000000
     celldm(4)=   0.000000  celldm(5)=   0.000000  celldm(6)=   0.000000

     crystal axes: (cart. coord. in units of alat)
               a(1) = (   1.000000   0.000000   0.000000 )  
               a(2) = (   0.000000   1.000000   0.000000 )  
               a(3) = (   0.000000   0.000000   1.000000 )  

     reciprocal axes: (cart. coord. in units 2 pi/alat)
               b(1) = (  1.000000  0.000000  0.000000 )  
               b(2) = (  0.000000  1.000000  0.000000 )  
               b(3) = (  0.000000  0.000000  1.000000 )  


     PseudoPot. # 1 for  C read from file:
     ./C.4.LDA.gth
     MD5 check sum: c0066d6dc75dbff65ec63b1699af8a26
     Pseudo is Norm-conserving, Zval =  4.0
     GTH norm-conserving PP, generated by Matthias Krack
     Using radial grid of 1073 points,  2 beta functions with: 
                l(1) =   0
                l(2) =   1

     atomic species   valence    mass     pseudopotential
        C              4.00    12.00000      C( 1.00)

     48 Sym. Ops., with inversion, found



   Cartesian axes

     site n.     atom                  positions (alat units)
         1           C   tau(   1) = (   0.0000000   0.0000000   0.0000000  )

     number of k points=     1
                       cart. coord. in units 2pi/alat
        k(    1) = (   0.0000000   0.0000000   0.0000000), wk =   2.0000000

     Dense  grid:   114497 G-vectors     FFT dimensions: (  64,  64,  64)

     Estimated max dynamical RAM per process >      66.92MB

     Initial potential from superposition of free atoms
 newd is called
 na,is,ii,deeq =     1    1    1      9.5228417900
 na,is,ii,deeq =     1    1    2      0.0000000000
 na,is,ii,deeq =     1    1    3      0.0000000000
 na,is,ii,deeq =     1    1    4      0.0000000000
 newd: sum(deeq) =    4.7614208949999997     
     Starting wfc are random
 init_us_2: sum(vkb_) =  (  207.55385986242109     ,  7.9380946260698693E-015)
 calbec: betapsi(:,:) ( -4.6698843122982385E-002, -2.2991952469277328E-002) ( -5.8008118435143915E-003, -6.2155371751871809E-003) (  1.6579439794773894E-003,  1.0725498298683923E-002) ( -1.0668047827688809E-005,  8.7548211096488849E-003) ( -1.7798287070106694E-002, -4.0124771541790005E-002) (  1.0428838097791686E-002, -3.5899154804724899E-003) ( -6.8683260155887717E-003,  1.2707219632682797E-002) ( -3.5170252006432000E-003,  8.1799767873296722E-003)

 sum(deeaux) =  (  4.7614208949999997     ,  0.0000000000000000     )
 na, becp%k =            1 ( -6.4497130193089086E-002, -6.3116724011067327E-002)
 na, sum(ps) =            1 (-0.30709798336890970     ,-0.30052528853024418     )
 sum(vkb)    =  (  207.55385986242109     ,  7.9380946260698693E-015)
 sum(hpsi)   =  ( -21.565388380102405     , -23.069003870464822     )

     total cpu time spent up to now is        0.2 secs

     per-process dynamical memory:    49.8 Mb

     Self-consistent Calculation

     iteration #  1     ecut=    35.00 Ry     beta=0.50
     Davidson diagonalization with overlap
 init_us_2: sum(vkb_) =  (  207.55385986242109     ,  7.9380946260698693E-015)
 calbec: betapsi(:,:) (  1.5658831259857814E-003,  6.7500662874548387E-004) ( -4.1927380063822225E-003, -1.2546310547808066E-003) (  7.9809037438404904E-004, -2.3241658350253028E-003) ( -5.1018662071651284E-004, -1.3088115963124098E-003) ( -1.5218479225885671E-002, -3.7580156931284740E-002) (  3.9064208544097468E-003, -5.2838017915825333E-003) ( -5.4015144280930676E-003,  8.9173817600883692E-003) ( -4.0884076478005368E-003,  6.0264784413065790E-003)

 sum(deeaux) =  (  4.7614208949999997     ,  0.0000000000000000     )
 na, becp%k =            1 ( -1.3652596099899890E-002, -3.6905150302539255E-002)
 na, sum(ps) =            1 ( -6.5005756341058846E-002,-0.17572095378362595     )
 sum(vkb)    =  (  207.55385986242109     ,  7.9380946260698693E-015)
 sum(hpsi)   =  ( -4.1383992861430663     , -11.525401308070174     )
 calbec: betapsi(:,:) ( -1.4143751072892842E-004, -1.4547960323531920E-002) ( -2.3820105092170418E-005,  7.9492503335296027E-006) (  1.0188694451716291E-002, -4.5201069874129312E-003) ( -2.2180929358911043E-003,  1.8694677696501145E-005) (  5.8825219549059416E-003,  1.7212795702004111E-002) ( -8.4990078673963226E-003,  5.9991604728795132E-003) (  2.5596772786148554E-003, -2.2139826996946292E-003) (  4.2195892328456032E-003, -8.0938605707728505E-003)

 sum(deeaux) =  (  4.7614208949999997     ,  0.0000000000000000     )
 na, becp%k =            1 (  5.7410844441770133E-003,  2.6648353784721902E-003)
 na, sum(ps) =            1 (  2.7335719432463889E-002,  1.2688402852792713E-002)
 sum(vkb)    =  (  207.55385986242109     ,  7.9380946260698693E-015)
 sum(hpsi)   =  (  2.9489941843007101     ,  3.8472571937998987     )
 calbec: betapsi(:,:) (  3.9264971151932102E-002,  3.3285417112809842E-002) ( -4.5970083252776820E-003, -1.6600572337756024E-004) ( -2.4685782776210488E-002, -1.9717671288154988E-005) (  5.0089531807810915E-003,  5.6056472232429259E-003) ( -9.1118134465519238E-003, -2.2443589871980401E-002) (  1.8478703513290912E-002, -8.4288446517359929E-003) ( -1.0808042183536499E-002, -1.2938456920554124E-003) ( -9.8668207146688592E-007,  1.4614980638002926E-002)

 sum(deeaux) =  (  4.7614208949999997     ,  0.0000000000000000     )
 na, becp%k =            1 (  3.0153157705380178E-002,  1.0841827240829442E-002)
 na, sum(ps) =            1 ( 0.14357187514862740     ,  5.1622502764465492E-002)
 sum(vkb)    =  (  207.55385986242109     ,  7.9380946260698693E-015)
 sum(hpsi)   =  (  7.3312039397293747     ,  4.5053943788422686     )
 calbec: betapsi(:,:) (  1.5730164716346157E-002, 0.15021905233607089     ) ( -9.8899228237884790E-003, -3.6798329232839468E-003) ( -1.9411703954959808E-002,  1.3211121802011051E-002) (  7.6834995676060471E-003,  6.5017980053675263E-003) (  1.9793525597753370E-002,  8.7230424651950231E-002) ( -2.8793812814026255E-002,  1.6579761483945610E-003) (  2.3953067599373424E-002,  7.4432223785102771E-003) ( -1.1081711400847962E-002, -2.0099501438742531E-002)

 sum(deeaux) =  (  4.7614208949999997     ,  0.0000000000000000     )
 na, becp%k =            1 (  3.5523690314099528E-002, 0.23744947698802110     )
 na, sum(ps) =            1 ( 0.16914324132906258     ,  1.1305969012375854     )
 sum(vkb)    =  (  207.55385986242109     ,  7.9380946260698693E-015)
 sum(hpsi)   =  (  27.821286678311413     ,  96.262350559340319     )
 calbec: betapsi(:,:) (  8.3024907577375240E-002, 0.14923740616902889     ) (  3.1986693513479506E-003, -8.4196174704742454E-003) (  1.9437428572229801E-002,  6.9884068977235638E-003) ( -4.0370619507156917E-003, -4.6934810321448981E-003) ( -3.6217599309968762E-002,  9.1427275901461519E-002) ( -1.8921955228946869E-002, -1.9761614590880924E-002) (  2.4429840087498975E-002,  9.0151128061109354E-003) ( -2.3737828651493039E-002, -1.1972707470782580E-002)

 sum(deeaux) =  (  4.7614208949999997     ,  0.0000000000000000     )
 na, becp%k =            1 (  4.6807308267406478E-002, 0.24066468207049041     )
 na, sum(ps) =            1 ( 0.22286929562313543     ,  1.1459058458989648     )
 sum(vkb)    =  (  207.55385986242109     ,  7.9380946260698693E-015)
 sum(hpsi)   =  ( -13.039403607899942     ,  139.64066594689692     )
 calbec: betapsi(:,:) ( 0.32520412964860457     ,-0.22893257327975486     ) ( -5.3677268576643395E-003, -4.9646727418602588E-003) ( -1.2766871054728988E-002,  1.5763996798212325E-003) (  6.1355749171710964E-003,  4.7056131451084617E-003) ( -9.3470951085948939E-002, 0.24187606400251380     ) ( -1.0177200605600657E-002, -1.0475078312350120E-002) (  4.2450384541992304E-004, -1.1869785426944775E-003) ( -2.1007877712168575E-002, -7.1448648579902621E-003)

 sum(deeaux) =  (  4.7614208949999997     ,  0.0000000000000000     )
 na, becp%k =            1 ( 0.23173317856265563     ,  1.2943490722758938E-002)
 na, sum(ps) =            1 (  1.1033791984729944     ,  6.1629407181583051E-002)
 sum(vkb)    =  (  207.55385986242109     ,  7.9380946260698693E-015)
 sum(hpsi)   =  (  54.639676389860000     , -10.348572670521451     )
 calbec: betapsi(:,:) ( 0.31321942090500737     , 0.53006336867375936     ) ( -1.1700322465264824E-002,  2.2402530504910596E-002) (  4.3792380908471757E-004, -1.5124769005850686E-002) ( -9.5195500191484032E-003,  5.8158249660711430E-003) ( 0.45370577486992852     , 0.11124303741354531     ) (  1.0388390833019046E-003,  1.4251806254426916E-002) ( -3.5888421558599955E-002, -2.0079644510235806E-002) ( -6.2015984843963624E-003,  1.6415023050764189E-002)

 sum(deeaux) =  (  4.7614208949999997     ,  0.0000000000000000     )
 na, becp%k =            1 ( 0.76692519577493590     , 0.64130640608730471     )
 na, sum(ps) =            1 (  3.6516536520647453     ,  3.0535297220414472     )
 sum(vkb)    =  (  207.55385986242109     ,  7.9380946260698693E-015)
 sum(hpsi)   =  (  114.84056824330681     ,  150.72418527097227     )
 calbec: betapsi(:,:) (-0.46841340940874399     , 0.25675010105684826     ) (  4.0706316019637763E-002,  2.3937937196817412E-002) ( -4.4394819538774874E-002,  5.4400239989700547E-003) (  2.6803451767070500E-002,  2.8723311133543615E-002) ( 0.37905883224700959     , -1.7280294537313709E-002) ( -1.3090389734627551E-002, -9.9712455340004360E-003) (  7.0175359533934514E-002,  1.4736344056719542E-002) ( -1.4974984190137043E-002, -4.1750506263169097E-002)

 sum(deeaux) =  (  4.7614208949999997     ,  0.0000000000000000     )
 na, becp%k =            1 ( -8.9354577161734394E-002, 0.23946980651953453     )
 na, sum(ps) =            1 (-0.42545475076177186     ,  1.1402165404837188     )
 sum(vkb)    =  (  207.55385986242109     ,  7.9380946260698693E-015)
 sum(hpsi)   =  ( -12.456355597929443     ,  73.338441231237994     )
     ethr =  1.00E-02,  avg # of iterations =  7.0
 init_us_2: sum(vkb_) =  (  207.55385986242109     ,  7.9380946260698693E-015)
 newd is called
 na,is,ii,deeq =     1    1    1      9.5228417900
 na,is,ii,deeq =     1    1    2      0.0000000000
 na,is,ii,deeq =     1    1    3      0.0000000000
 na,is,ii,deeq =     1    1    4      0.0000000000
 newd: sum(deeq) =    4.7614208949999997     

     total cpu time spent up to now is        0.6 secs

     total energy              =      -9.09928784 Ry
     Harris-Foulkes estimate   =     -12.19070049 Ry
     estimated scf accuracy    <       5.21940542 Ry

     End of self-consistent calculation

     convergence NOT achieved after   1 iterations: stopping

     Writing output data file pwscf.save

     init_run     :      0.21s CPU      0.23s WALL (       1 calls)
     electrons    :      0.39s CPU      0.41s WALL (       1 calls)

     Called by init_run:
     wfcinit      :      0.04s CPU      0.04s WALL (       1 calls)
     potinit      :      0.06s CPU      0.07s WALL (       1 calls)

     Called by electrons:
     c_bands      :      0.24s CPU      0.24s WALL (       1 calls)
     sum_band     :      0.05s CPU      0.06s WALL (       1 calls)
     v_of_rho     :      0.07s CPU      0.07s WALL (       2 calls)
     mix_rho      :      0.02s CPU      0.03s WALL (       1 calls)

     Called by c_bands:
     init_us_2    :      0.02s CPU      0.01s WALL (       3 calls)
     cegterg      :      0.23s CPU      0.23s WALL (       1 calls)

     Called by sum_band:

     Called by *egterg:
     h_psi        :      0.25s CPU      0.24s WALL (       9 calls)
     g_psi        :      0.00s CPU      0.00s WALL (       7 calls)
     cdiaghg      :      0.00s CPU      0.00s WALL (       8 calls)

     Called by h_psi:
     h_psi:pot    :      0.25s CPU      0.24s WALL (       9 calls)
     h_psi:calbec :      0.01s CPU      0.00s WALL (       9 calls)
     vloc_psi     :      0.23s CPU      0.23s WALL (       9 calls)
     add_vuspsi   :      0.01s CPU      0.00s WALL (       9 calls)

     General routines
     calbec       :      0.01s CPU      0.00s WALL (       9 calls)
     fft          :      0.06s CPU      0.07s WALL (       8 calls)
     fftw         :      0.21s CPU      0.20s WALL (      38 calls)
     davcio       :      0.00s CPU      0.00s WALL (       3 calls)

     Parallel routines
     fft_scatter  :      0.06s CPU      0.06s WALL (      46 calls)

     PWSCF        :     0.68s CPU         0.72s WALL


   This run was terminated on:  17: 3:21  18Apr2017            

=------------------------------------------------------------------------------=
   JOB DONE.
=------------------------------------------------------------------------------=
