
     Program PWSCF v.6.1 (svn rev. 13369) starts on 15May2017 at 19: 8:13 

     This program is part of the open-source Quantum ESPRESSO suite
     for quantum simulation of materials; please cite
         "P. Giannozzi et al., J. Phys.:Condens. Matter 21 395502 (2009);
          URL http://www.quantum-espresso.org", 
     in publications or presentations arising from this work. More details at
     http://www.quantum-espresso.org/quote

     Parallel version (MPI), running on     1 processors
     Waiting for input...
     Reading input from standard input

     Current dimensions of program PWSCF are:
     Max number of different atomic species (ntypx) = 10
     Max number of k-points (npk) =  40000
     Max angular momentum in pseudopotentials (lmaxx) =  3

     Subspace diagonalization in iterative solution of the eigenvalue problem:
     a serial algorithm will be used


     G-vector sticks info
     --------------------
     sticks:   dense  smooth     PW     G-vecs:    dense   smooth      PW
     Sum        8121    8121   2029               552629   552629   68999



     bravais-lattice index     =            0
     lattice parameter (alat)  =      16.0000  a.u.
     unit-cell volume          =    4096.0000 (a.u.)^3
     number of atoms/cell      =            1
     number of atomic types    =            1
     number of electrons       =         4.00
     number of Kohn-Sham states=            2
     kinetic-energy cutoff     =     100.0000  Ry
     charge density cutoff     =     400.0000  Ry
     convergence threshold     =      1.0E-06
     mixing beta               =       0.5000
     number of iterations used =            8  plain     mixing
     Exchange-correlation      = PZ ( 1  1  0  0 0 0)

     celldm(1)=  16.000000  celldm(2)=   0.000000  celldm(3)=   0.000000
     celldm(4)=   0.000000  celldm(5)=   0.000000  celldm(6)=   0.000000

     crystal axes: (cart. coord. in units of alat)
               a(1) = (   1.000000   0.000000   0.000000 )  
               a(2) = (   0.000000   1.000000   0.000000 )  
               a(3) = (   0.000000   0.000000   1.000000 )  

     reciprocal axes: (cart. coord. in units 2 pi/alat)
               b(1) = (  1.000000  0.000000  0.000000 )  
               b(2) = (  0.000000  1.000000  0.000000 )  
               b(3) = (  0.000000  0.000000  1.000000 )  


     PseudoPot. # 1 for  C read from file:
     ./C.4.LDA.gth
     MD5 check sum: 2fd152b589f38c31cfe901ca90677eee
     Pseudo is Norm-conserving, Zval =  4.0
     GTH norm-conserving PP, generated by Matthias Krack
     Using radial grid of 1073 points,  1 beta functions with: 
                l(1) =   0

     atomic species   valence    mass     pseudopotential
        C              4.00    12.00000      C( 1.00)

     48 Sym. Ops., with inversion, found



   Cartesian axes

     site n.     atom                  positions (alat units)
         1           C   tau(   1) = (   0.0000000   0.0000000   0.0000000  )

     number of k points=     1
                       cart. coord. in units 2pi/alat
        k(    1) = (   0.0000000   0.0000000   0.0000000), wk =   2.0000000

     Dense  grid:   552629 G-vectors     FFT dimensions: ( 108, 108, 108)

     Estimated max dynamical RAM per process >     319.46MB

     Initial potential from superposition of free atoms
     Starting wfc are random

     total cpu time spent up to now is        2.6 secs

     per-process dynamical memory:   219.9 Mb

     Self-consistent Calculation

     iteration #  1     ecut=   100.00 Ry     beta=0.50
     Davidson diagonalization with overlap
     ethr =  1.00E-02,  avg # of iterations =  7.0

     total cpu time spent up to now is        4.7 secs

     total energy              =      -9.16565538 Ry
     Harris-Foulkes estimate   =     -12.20974602 Ry
     estimated scf accuracy    <       5.14216076 Ry

     iteration #  2     ecut=   100.00 Ry     beta=0.50
     Davidson diagonalization with overlap
     ethr =  1.00E-02,  avg # of iterations =  5.0

     total cpu time spent up to now is        6.1 secs

     total energy              =     -10.71475694 Ry
     Harris-Foulkes estimate   =     -10.86755039 Ry
     estimated scf accuracy    <       0.33476361 Ry

     iteration #  3     ecut=   100.00 Ry     beta=0.50
     Davidson diagonalization with overlap
     ethr =  8.37E-03,  avg # of iterations =  1.0

     negative rho (up, down):  8.988E-02 0.000E+00

     total cpu time spent up to now is        7.2 secs

     total energy              =     -10.67683259 Ry
     Harris-Foulkes estimate   =     -10.72402837 Ry
     estimated scf accuracy    <       0.09465044 Ry

     iteration #  4     ecut=   100.00 Ry     beta=0.50
     Davidson diagonalization with overlap
     ethr =  2.37E-03,  avg # of iterations =  2.0

     negative rho (up, down):  2.092E-03 0.000E+00

     total cpu time spent up to now is        8.4 secs

     total energy              =     -10.67612417 Ry
     Harris-Foulkes estimate   =     -10.69610334 Ry
     estimated scf accuracy    <       0.02394935 Ry

     iteration #  5     ecut=   100.00 Ry     beta=0.50
     Davidson diagonalization with overlap
     ethr =  5.99E-04,  avg # of iterations =  2.0

     total cpu time spent up to now is        9.6 secs

     total energy              =     -10.68230215 Ry
     Harris-Foulkes estimate   =     -10.68482135 Ry
     estimated scf accuracy    <       0.00407702 Ry

     iteration #  6     ecut=   100.00 Ry     beta=0.50
     Davidson diagonalization with overlap
     ethr =  1.02E-04,  avg # of iterations =  2.0

     total cpu time spent up to now is       10.9 secs

     total energy              =     -10.68317038 Ry
     Harris-Foulkes estimate   =     -10.68315256 Ry
     estimated scf accuracy    <       0.00003549 Ry

     iteration #  7     ecut=   100.00 Ry     beta=0.50
     Davidson diagonalization with overlap
     ethr =  8.87E-07,  avg # of iterations =  3.0

     total cpu time spent up to now is       12.0 secs

     End of self-consistent calculation

          k = 0.0000 0.0000 0.0000 ( 68999 PWs)   bands (ev):

   -13.4365  -5.2100

     highest occupied level (ev):    -5.2100

!    total energy              =     -10.68318867 Ry
     Harris-Foulkes estimate   =     -10.68318540 Ry
     estimated scf accuracy    <       0.00000022 Ry

     The total energy is the sum of the following terms:

     one-electron contribution =     -11.04829332 Ry
     hartree contribution      =       5.94510438 Ry
     xc contribution           =      -2.74270225 Ry
     ewald contribution        =      -2.83729748 Ry

     convergence has been achieved in   7 iterations

     Writing output data file pwscf.save

     init_run     :      1.18s CPU      2.10s WALL (       1 calls)
     electrons    :      9.18s CPU      9.48s WALL (       1 calls)

     Called by init_run:
     wfcinit      :      0.16s CPU      0.54s WALL (       1 calls)
     potinit      :      0.33s CPU      0.45s WALL (       1 calls)

     Called by electrons:
     c_bands      :      3.95s CPU      4.00s WALL (       7 calls)
     sum_band     :      1.84s CPU      1.84s WALL (       7 calls)
     v_of_rho     :      1.88s CPU      1.93s WALL (       8 calls)
     mix_rho      :      1.34s CPU      1.47s WALL (       7 calls)

     Called by c_bands:
     init_us_2    :      0.07s CPU      0.07s WALL (      15 calls)
     cegterg      :      3.91s CPU      3.96s WALL (       7 calls)

     Called by sum_band:

     Called by *egterg:
     h_psi        :      3.75s CPU      3.83s WALL (      30 calls)
     g_psi        :      0.04s CPU      0.05s WALL (      22 calls)
     cdiaghg      :      0.00s CPU      0.32s WALL (      29 calls)

     Called by h_psi:
     h_psi:pot    :      3.70s CPU      3.80s WALL (      30 calls)
     h_psi:calbec :      0.01s CPU      0.06s WALL (      30 calls)
     vloc_psi     :      3.68s CPU      3.69s WALL (      30 calls)
     add_vuspsi   :      0.02s CPU      0.04s WALL (      30 calls)

     General routines
     calbec       :      0.01s CPU      0.06s WALL (      30 calls)
     fft          :      1.27s CPU      1.59s WALL (      31 calls)
     fftw         :      3.44s CPU      3.46s WALL (     126 calls)

     Parallel routines
     fft_scatter  :      0.72s CPU      0.76s WALL (     157 calls)

     PWSCF        :    10.58s CPU        12.42s WALL


   This run was terminated on:  19: 8:26  15May2017            

=------------------------------------------------------------------------------=
   JOB DONE.
=------------------------------------------------------------------------------=
